REMARK  Name = /mnt/hpc/home/25menglei/25wenshaohua/MD/yzy/docking/dc/peptides/pdb/alllhrc.pdb
REMARK  35 active torsions:
REMARK  status: ('A' for Active; 'I' for Inactive)
REMARK    1  A    between atoms: N_1  and  CA_2
REMARK    2  A    between atoms: CA_2  and  C_3
REMARK    3  A    between atoms: CA_2  and  CB_5
REMARK    4  A    between atoms: N_6  and  CA_7
REMARK    5  A    between atoms: CA_7  and  C_8
REMARK    6  A    between atoms: CA_7  and  CB_10
REMARK    7  A    between atoms: CB_10  and  CG_11
REMARK    8  A    between atoms: CG_11  and  CD2_12
REMARK    9  A    between atoms: CG_11  and  CD1_13
REMARK   10  A    between atoms: N_14  and  CA_15
REMARK   11  A    between atoms: CA_15  and  C_16
REMARK   12  A    between atoms: CA_15  and  CB_18
REMARK   13  A    between atoms: CB_18  and  CG_19
REMARK   14  A    between atoms: CG_19  and  CD1_20
REMARK   15  A    between atoms: CG_19  and  CD2_21
REMARK   16  A    between atoms: N_22  and  CA_23
REMARK   17  A    between atoms: CA_23  and  C_24
REMARK   18  A    between atoms: CA_23  and  CB_26
REMARK   19  A    between atoms: CB_26  and  CG_27
REMARK   20  A    between atoms: CG_27  and  CD2_28
REMARK   21  A    between atoms: CG_27  and  CD1_29
REMARK   22  A    between atoms: N_30  and  CA_31
REMARK   23  A    between atoms: CA_31  and  C_32
REMARK   24  A    between atoms: CA_31  and  CB_34
REMARK   25  A    between atoms: CB_34  and  CG_35
REMARK   26  A    between atoms: N_40  and  CA_41
REMARK   27  A    between atoms: CA_41  and  C_42
REMARK   28  A    between atoms: CA_41  and  CB_44
REMARK   29  A    between atoms: CB_44  and  CG_45
REMARK   30  A    between atoms: CG_45  and  CD_46
REMARK   31  A    between atoms: CD_46  and  NE_47
REMARK   32  A    between atoms: N_51  and  CA_52
REMARK   33  A    between atoms: CA_52  and  C_53
REMARK   34  A    between atoms: CA_52  and  CB_55
REMARK   35  A    between atoms: CB_55  and  SG_56
REMARK                            x       y       z     vdW  Elec       q    Type
REMARK                         _______ _______ _______ _____ _____    ______ ____
ROOT
ATOM      1  C   LEU A   4      -1.727   0.147  -1.602  0.00  0.00    +0.169 C 
ATOM      2  O   LEU A   4      -1.895   1.067  -2.400  0.00  0.00    -0.375 OA
ATOM      3  N   HIS A   5      -1.714   0.316  -0.310  0.00  0.00    -0.290 N 
ATOM      4  H   HIS A   5      -1.517  -0.450   0.276  0.00  0.00    +0.196 HD
ENDROOT
BRANCH   3   5
ATOM      5  CA  HIS A   5      -1.986   1.618   0.283  0.00  0.00    +0.229 C 
BRANCH   5   6
ATOM      6  C   HIS A   5      -1.007   2.679  -0.186  0.00  0.00    +0.171 C 
ATOM      7  O   HIS A   5      -1.322   3.858  -0.220  0.00  0.00    -0.375 OA
ATOM      8  N   ARG A   6       0.170   2.275  -0.559  0.00  0.00    -0.292 N 
ATOM      9  H   ARG A   6       0.377   1.313  -0.532  0.00  0.00    +0.195 HD
BRANCH   8  10
ATOM     10  CA  ARG A   6       1.188   3.203  -1.014  0.00  0.00    +0.214 C 
BRANCH  10  11
ATOM     11  C   ARG A   6       0.855   3.787  -2.375  0.00  0.00    +0.167 C 
ATOM     12  O   ARG A   6       1.593   4.625  -2.894  0.00  0.00    -0.376 OA
ATOM     13  N   CYS A   7      -0.240   3.330  -2.950  0.00  0.00    -0.303 N 
ATOM     14  H   CYS A   7      -0.784   2.660  -2.476  0.00  0.00    +0.193 HD
BRANCH  13  15
ATOM     15  CA  CYS A   7      -0.668   3.786  -4.263  0.00  0.00    +0.164 C 
BRANCH  15  16
ATOM     16  C   CYS A   7      -1.842   4.735  -4.143  0.00  0.00    +0.049 C 
ATOM     17  O   CYS A   7      -1.907   5.700  -4.904  0.00  0.00    -0.561 OA
ATOM     18  OXT CYS A   7      -2.685   4.530  -3.291  0.00  0.00    -0.561 OA
ENDBRANCH  15  16
BRANCH  15  19
ATOM     19  CB  CYS A   7      -1.062   2.602  -5.150  0.00  0.00    +0.139 C 
BRANCH  19  20
ATOM     20  SG  CYS A   7       0.312   1.489  -5.488  0.00  0.00    -0.222 S 
ATOM     21  H   CYS A   7       0.763   0.958  -4.320  0.00  0.00    +0.129 HD
ENDBRANCH  19  20
ENDBRANCH  15  19
ENDBRANCH  13  15
ENDBRANCH  10  11
BRANCH  10  22
ATOM     22  CB  ARG A   6       2.550   2.521  -1.078  0.00  0.00    +0.089 C 
BRANCH  22  23
ATOM     23  CG  ARG A   6       2.627   1.463  -2.155  0.00  0.00    +0.073 C 
BRANCH  23  24
ATOM     24  CD  ARG A   6       4.019   0.869  -2.232  0.00  0.00    +0.228 C 
BRANCH  24  25
ATOM     25  NE  ARG A   6       4.146  -0.060  -3.332  0.00  0.00    -0.331 N 
ATOM     26  CZ  ARG A   6       5.289  -0.651  -3.687  0.00  0.00    +0.115 C 
ATOM     27  NH2 ARG A   6       6.392  -0.391  -3.016  0.00  0.00    -0.317 N 
ATOM     28  NH1 ARG A   6       5.313  -1.491  -4.710  0.00  0.00    -0.359 NA
ATOM     29  H   ARG A   6       3.337  -0.270  -3.853  0.00  0.00    +0.298 HD
ATOM     30  H   ARG A   6       7.238  -0.824  -3.273  0.00  0.00    +0.294 HD
ATOM     31  H   ARG A   6       6.370   0.236  -2.257  0.00  0.00    +0.294 HD
ATOM     32  H   ARG A   6       4.486  -1.683  -5.209  0.00  0.00    +0.232 HD
ATOM     33  H   ARG A   6       6.158  -1.924  -4.972  0.00  0.00    +0.232 HD
ATOM     34  H   ARG A   6       4.926  -2.378  -4.530  0.00  0.00    +0.232 HD
ENDBRANCH  24  25
ENDBRANCH  23  24
ENDBRANCH  22  23
ENDBRANCH  10  22
ENDBRANCH   8  10
ENDBRANCH   5   6
BRANCH   5  35
ATOM     35  CB  HIS A   5      -1.936   1.520   1.797  0.00  0.00    +0.168 C 
BRANCH  35  36
ATOM     36  CG  HIS A   5      -2.174   2.829   2.473  0.00  0.00    -0.008 A 
ATOM     37  ND1 HIS A   5      -3.328   3.553   2.325  0.00  0.00    -0.334 N 
ATOM     38  CD2 HIS A   5      -1.382   3.564   3.300  0.00  0.00    +0.152 A 
ATOM     39  CE1 HIS A   5      -3.222   4.668   3.033  0.00  0.00    +0.182 A 
ATOM     40  NE2 HIS A   5      -2.067   4.697   3.635  0.00  0.00    -0.280 NA
ATOM     41  H   HIS A   5      -4.106   3.289   1.783  0.00  0.00    +0.189 HD
ENDBRANCH  35  36
ENDBRANCH   5  35
ENDBRANCH   3   5
BRANCH   1  42
ATOM     42  CA  LEU A   4      -1.498  -1.270  -2.085  0.00  0.00    +0.213 C 
BRANCH  42  45
ATOM     43  C   LEU A   3       0.337  -2.127  -0.737  0.00  0.00    +0.168 C 
ATOM     44  O   LEU A   3       1.158  -1.425  -1.330  0.00  0.00    -0.375 OA
ATOM     45  N   LEU A   4      -0.944  -2.104  -1.034  0.00  0.00    -0.292 N 
ATOM     46  H   LEU A   4      -1.556  -2.679  -0.520  0.00  0.00    +0.195 HD
BRANCH  43  47
ATOM     47  CA  LEU A   3       0.761  -3.056   0.383  0.00  0.00    +0.213 C 
BRANCH  47  50
ATOM     48  C   LEU A   2      -0.345  -1.816   2.133  0.00  0.00    +0.169 C 
ATOM     49  O   LEU A   2       0.209  -0.775   1.801  0.00  0.00    -0.375 OA
ATOM     50  N   LEU A   3      -0.139  -2.935   1.518  0.00  0.00    -0.292 N 
ATOM     51  H   LEU A   3      -0.612  -3.739   1.832  0.00  0.00    +0.195 HD
BRANCH  48  52
ATOM     52  CA  LEU A   2      -1.335  -1.844   3.285  0.00  0.00    +0.215 C 
BRANCH  52  55
ATOM     53  C   ALA A   1      -3.169  -2.816   2.010  0.00  0.00    +0.157 C 
ATOM     54  O   ALA A   1      -3.059  -1.950   1.135  0.00  0.00    -0.370 OA
ATOM     55  N   LEU A   2      -2.373  -2.841   3.060  0.00  0.00    -0.290 N 
ATOM     56  H   LEU A   2      -2.485  -3.563   3.720  0.00  0.00    +0.197 HD
BRANCH  53  57
ATOM     57  CA  ALA A   1      -4.230  -3.901   1.912  0.00  0.00    +0.184 C 
ATOM     58  CB  ALA A   1      -5.084  -3.912   3.171  0.00  0.00    +0.103 C 
BRANCH  57  59
ATOM     59  N   ALA A   1      -3.629  -5.217   1.707  0.00  0.00    +0.361 NA
ATOM     60  H   ALA A   1      -3.058  -5.202   0.862  0.00  0.00    +0.133 HD
ATOM     61  H   ALA A   1      -4.366  -5.915   1.608  0.00  0.00    +0.133 HD
ATOM     62  H   ALA A   1      -3.043  -5.452   2.509  0.00  0.00    +0.133 HD
ATOM     63  H   ALA A   1      -3.686  -5.950   1.000  0.00  0.00    +0.133 HD
ENDBRANCH  57  59
ENDBRANCH  53  57
ENDBRANCH  52  55
BRANCH  52  64
ATOM     64  CB  LEU A   2      -0.594  -2.133   4.590  0.00  0.00    +0.079 C 
BRANCH  64  65
ATOM     65  CG  LEU A   2      -1.443  -2.003   5.841  0.00  0.00    -0.016 C 
ATOM     66  CD2 LEU A   2      -0.628  -2.410   7.063  0.00  0.00    +0.014 C 
ATOM     67  CD1 LEU A   2      -1.951  -0.582   6.001  0.00  0.00    +0.014 C 
ENDBRANCH  64  65
ENDBRANCH  52  64
ENDBRANCH  48  52
ENDBRANCH  47  50
BRANCH  47  68
ATOM     68  CB  LEU A   3       0.782  -4.496  -0.121  0.00  0.00    +0.079 C 
BRANCH  68  69
ATOM     69  CG  LEU A   3       1.264  -5.506   0.906  0.00  0.00    -0.016 C 
ATOM     70  CD1 LEU A   3       1.183  -6.914   0.325  0.00  0.00    +0.014 C 
ATOM     71  CD2 LEU A   3       2.688  -5.200   1.341  0.00  0.00    +0.014 C 
ENDBRANCH  68  69
ENDBRANCH  47  68
ENDBRANCH  43  47
ENDBRANCH  42  45
BRANCH  42  72
ATOM     72  CB  LEU A   4      -2.811  -1.856  -2.580  0.00  0.00    +0.079 C 
BRANCH  72  73
ATOM     73  CG  LEU A   4      -2.695  -3.274  -3.110  0.00  0.00    -0.016 C 
ATOM     74  CD2 LEU A   4      -4.058  -3.793  -3.517  0.00  0.00    +0.014 C 
ATOM     75  CD1 LEU A   4      -1.730  -3.338  -4.278  0.00  0.00    +0.014 C 
ENDBRANCH  72  73
ENDBRANCH  42  72
ENDBRANCH   1  42
TORSDOF 28
