REMARK  Name = /mnt/hpc/home/25menglei/25wenshaohua/MD/yzy/docking/dc/peptides/pdb/fclhlqlr.pdb
REMARK  41 active torsions:
REMARK  status: ('A' for Active; 'I' for Inactive)
REMARK    1  A    between atoms: N_1  and  CA_2
REMARK    2  A    between atoms: CA_2  and  C_3
REMARK    3  A    between atoms: CA_2  and  CB_5
REMARK    4  A    between atoms: CB_5  and  CG_6
REMARK    5  A    between atoms: N_12  and  CA_13
REMARK    6  A    between atoms: CA_13  and  C_14
REMARK    7  A    between atoms: CA_13  and  CB_16
REMARK    8  A    between atoms: CB_16  and  SG_17
REMARK    9  A    between atoms: N_18  and  CA_19
REMARK   10  A    between atoms: CA_19  and  C_20
REMARK   11  A    between atoms: CA_19  and  CB_22
REMARK   12  A    between atoms: CB_22  and  CG_23
REMARK   13  A    between atoms: CG_23  and  CD1_24
REMARK   14  A    between atoms: CG_23  and  CD2_25
REMARK   15  A    between atoms: N_26  and  CA_27
REMARK   16  A    between atoms: CA_27  and  C_28
REMARK   17  A    between atoms: CA_27  and  CB_30
REMARK   18  A    between atoms: CB_30  and  CG_31
REMARK   19  A    between atoms: N_36  and  CA_37
REMARK   20  A    between atoms: CA_37  and  C_38
REMARK   21  A    between atoms: CA_37  and  CB_40
REMARK   22  A    between atoms: CB_40  and  CG_41
REMARK   23  A    between atoms: CG_41  and  CD2_42
REMARK   24  A    between atoms: CG_41  and  CD1_43
REMARK   25  A    between atoms: N_44  and  CA_45
REMARK   26  A    between atoms: CA_45  and  C_46
REMARK   27  A    between atoms: CA_45  and  CB_48
REMARK   28  A    between atoms: CB_48  and  CG_49
REMARK   29  A    between atoms: CG_49  and  CD_50
REMARK   30  A    between atoms: N_53  and  CA_54
REMARK   31  A    between atoms: CA_54  and  C_55
REMARK   32  A    between atoms: CA_54  and  CB_57
REMARK   33  A    between atoms: CB_57  and  CG_58
REMARK   34  A    between atoms: CG_58  and  CD2_59
REMARK   35  A    between atoms: CG_58  and  CD1_60
REMARK   36  A    between atoms: N_61  and  CA_62
REMARK   37  A    between atoms: CA_62  and  C_63
REMARK   38  A    between atoms: CA_62  and  CB_65
REMARK   39  A    between atoms: CB_65  and  CG_66
REMARK   40  A    between atoms: CG_66  and  CD_67
REMARK   41  A    between atoms: CD_67  and  NE_68
REMARK                            x       y       z     vdW  Elec       q    Type
REMARK                         _______ _______ _______ _____ _____    ______ ____
ROOT
ATOM      1  CA  LEU A   5       3.013   3.589   0.705  0.00  0.00    +0.213 C 
ENDROOT
BRANCH   1   2
ATOM      2  C   LEU A   5       4.221   2.732   0.333  0.00  0.00    +0.168 C 
ATOM      3  O   LEU A   5       5.157   3.208  -0.298  0.00  0.00    -0.375 OA
ATOM      4  N   GLN A   6       4.211   1.520   0.725  0.00  0.00    -0.292 N 
ATOM      5  H   GLN A   6       3.450   1.207   1.265  0.00  0.00    +0.195 HD
BRANCH   4   6
ATOM      6  CA  GLN A   6       5.280   0.573   0.409  0.00  0.00    +0.218 C 
BRANCH   6   7
ATOM      7  C   GLN A   6       5.319   0.256  -1.085  0.00  0.00    +0.169 C 
ATOM      8  O   GLN A   6       6.396   0.032  -1.645  0.00  0.00    -0.375 OA
ATOM      9  N   LEU A   7       4.168   0.281  -1.710  0.00  0.00    -0.292 N 
ATOM     10  H   LEU A   7       3.354   0.481  -1.194  0.00  0.00    +0.195 HD
BRANCH   9  11
ATOM     11  CA  LEU A   7       4.045   0.024  -3.140  0.00  0.00    +0.213 C 
BRANCH  11  12
ATOM     12  C   LEU A   7       4.539   1.202  -3.974  0.00  0.00    +0.166 C 
ATOM     13  O   LEU A   7       5.353   1.023  -4.876  0.00  0.00    -0.376 OA
ATOM     14  N   ARG A   8       4.003   2.393  -3.680  0.00  0.00    -0.306 N 
ATOM     15  H   ARG A   8       3.340   2.432  -2.954  0.00  0.00    +0.192 HD
BRANCH  14  16
ATOM     16  CA  ARG A   8       4.338   3.644  -4.368  0.00  0.00    +0.151 C 
BRANCH  16  17
ATOM     17  C   ARG A   8       4.057   3.599  -5.879  0.00  0.00    +0.046 C 
ATOM     18  OXT ARG A   8       3.777   4.653  -6.453  0.00  0.00    -0.561 OA
ATOM     19  O   ARG A   8       4.118   2.550  -6.468  0.00  0.00    -0.561 OA
ENDBRANCH  16  17
BRANCH  16  20
ATOM     20  CB  ARG A   8       5.795   4.019  -4.123  0.00  0.00    +0.071 C 
BRANCH  20  21
ATOM     21  CG  ARG A   8       6.027   4.508  -2.720  0.00  0.00    +0.070 C 
BRANCH  21  22
ATOM     22  CD  ARG A   8       7.443   4.989  -2.528  0.00  0.00    +0.228 C 
BRANCH  22  23
ATOM     23  NE  ARG A   8       7.617   6.279  -3.178  0.00  0.00    -0.331 N 
ATOM     24  CZ  ARG A   8       8.734   6.990  -3.109  0.00  0.00    +0.115 C 
ATOM     25  NH2 ARG A   8       9.771   6.549  -2.423  0.00  0.00    -0.317 N 
ATOM     26  NH1 ARG A   8       8.807   8.142  -3.732  0.00  0.00    -0.359 NA
ATOM     27  H   ARG A   8       6.864   6.644  -3.697  0.00  0.00    +0.298 HD
ATOM     28  H   ARG A   8      10.596   7.085  -2.378  0.00  0.00    +0.294 HD
ATOM     29  H   ARG A   8       9.720   5.684  -1.956  0.00  0.00    +0.294 HD
ATOM     30  H   ARG A   8       8.035   8.474  -4.245  0.00  0.00    +0.232 HD
ATOM     31  H   ARG A   8       9.634   8.675  -3.687  0.00  0.00    +0.232 HD
ATOM     32  H   ARG A   8       9.677   7.723  -3.540  0.00  0.00    +0.232 HD
ENDBRANCH  22  23
ENDBRANCH  21  22
ENDBRANCH  20  21
ENDBRANCH  16  20
ENDBRANCH  14  16
ENDBRANCH  11  12
BRANCH  11  33
ATOM     33  CB  LEU A   7       2.579  -0.291  -3.459  0.00  0.00    +0.079 C 
BRANCH  33  34
ATOM     34  CG  LEU A   7       2.366  -1.019  -4.763  0.00  0.00    -0.016 C 
ATOM     35  CD2 LEU A   7       2.478  -2.517  -4.546  0.00  0.00    +0.014 C 
ATOM     36  CD1 LEU A   7       1.017  -0.692  -5.346  0.00  0.00    +0.014 C 
ENDBRANCH  33  34
ENDBRANCH  11  33
ENDBRANCH   9  11
ENDBRANCH   6   7
BRANCH   6  37
ATOM     37  CB  GLN A   6       5.091  -0.711   1.219  0.00  0.00    +0.113 C 
BRANCH  37  38
ATOM     38  CG  GLN A   6       5.281  -0.511   2.705  0.00  0.00    +0.194 C 
BRANCH  38  39
ATOM     39  CD  GLN A   6       5.098  -1.799   3.469  0.00  0.00    +0.136 C 
ATOM     40  OE1 GLN A   6       4.007  -2.132   3.885  0.00  0.00    -0.387 OA
ATOM     41  NE2 GLN A   6       6.181  -2.546   3.645  0.00  0.00    -0.326 N 
ATOM     42  H   GLN A   6       7.050  -2.244   3.294  0.00  0.00    +0.178 HD
ATOM     43  H   GLN A   6       6.116  -3.402   4.127  0.00  0.00    +0.178 HD
ENDBRANCH  38  39
ENDBRANCH  37  38
ENDBRANCH   6  37
ENDBRANCH   4   6
ENDBRANCH   1   2
BRANCH   1  46
ATOM     44  C   HIS A   4       1.324   2.223  -0.340  0.00  0.00    +0.169 C 
ATOM     45  O   HIS A   4       1.887   2.263  -1.431  0.00  0.00    -0.375 OA
ATOM     46  N   LEU A   5       1.777   2.810   0.721  0.00  0.00    -0.292 N 
ATOM     47  H   LEU A   5       1.274   2.729   1.563  0.00  0.00    +0.195 HD
BRANCH  44  48
ATOM     48  CA  HIS A   4       0.018   1.450  -0.174  0.00  0.00    +0.220 C 
BRANCH  48  51
ATOM     49  C   LEU A   3       0.572  -0.191   1.578  0.00  0.00    +0.168 C 
ATOM     50  O   LEU A   3       1.404  -0.755   0.876  0.00  0.00    -0.375 OA
ATOM     51  N   HIS A   4      -0.104   0.875   1.168  0.00  0.00    -0.291 N 
ATOM     52  H   HIS A   4      -0.723   1.304   1.802  0.00  0.00    +0.195 HD
BRANCH  49  53
ATOM     53  CA  LEU A   3       0.287  -0.678   3.008  0.00  0.00    +0.213 C 
BRANCH  53  56
ATOM     54  C   CYS A   2       0.186   1.329   4.350  0.00  0.00    +0.172 C 
ATOM     55  O   CYS A   2       1.406   1.441   4.301  0.00  0.00    -0.375 OA
ATOM     56  N   LEU A   3      -0.434   0.342   3.772  0.00  0.00    -0.292 N 
ATOM     57  H   LEU A   3      -1.413   0.279   3.850  0.00  0.00    +0.195 HD
BRANCH  54  58
ATOM     58  CA  CYS A   2      -0.664   2.388   5.058  0.00  0.00    +0.230 C 
BRANCH  58  61
ATOM     59  C   PHE A   1      -1.138   1.122   7.131  0.00  0.00    +0.160 C 
ATOM     60  O   PHE A   1       0.030   0.746   7.260  0.00  0.00    -0.369 OA
ATOM     61  N   CYS A   2      -1.554   1.861   6.104  0.00  0.00    -0.287 N 
ATOM     62  H   CYS A   2      -2.515   2.067   6.041  0.00  0.00    +0.198 HD
BRANCH  59  63
ATOM     63  CA  PHE A   1      -2.178   0.763   8.195  0.00  0.00    +0.198 C 
BRANCH  63  64
ATOM     64  N   PHE A   1      -3.524   1.301   7.915  0.00  0.00    +0.362 NA
ATOM     65  H   PHE A   1      -3.466   2.311   7.785  0.00  0.00    +0.134 HD
ATOM     66  H   PHE A   1      -4.143   1.094   8.699  0.00  0.00    +0.134 HD
ATOM     67  H   PHE A   1      -3.893   0.870   7.067  0.00  0.00    +0.134 HD
ATOM     68  H   PHE A   1      -2.914   1.374   7.101  0.00  0.00    +0.134 HD
ENDBRANCH  63  64
BRANCH  63  69
ATOM     69  CB  PHE A   1      -2.233  -0.742   8.393  0.00  0.00    +0.129 C 
BRANCH  69  70
ATOM     70  CG  PHE A   1      -3.103  -1.432   7.388  0.00  0.00    -0.070 A 
ATOM     71  CD1 PHE A   1      -2.630  -1.701   6.116  0.00  0.00    +0.009 A 
ATOM     72  CD2 PHE A   1      -4.401  -1.779   7.718  0.00  0.00    +0.009 A 
ATOM     73  CE1 PHE A   1      -3.440  -2.316   5.194  0.00  0.00    +0.002 A 
ATOM     74  CE2 PHE A   1      -5.220  -2.393   6.788  0.00  0.00    +0.002 A 
ATOM     75  CZ  PHE A   1      -4.733  -2.659   5.526  0.00  0.00    +0.001 A 
ENDBRANCH  69  70
ENDBRANCH  63  69
ENDBRANCH  59  63
ENDBRANCH  58  61
BRANCH  58  76
ATOM     76  CB  CYS A   2       0.207   3.482   5.661  0.00  0.00    +0.157 C 
BRANCH  76  77
ATOM     77  SG  CYS A   2      -0.671   4.409   6.939  0.00  0.00    -0.219 S 
ATOM     78  H   CYS A   2      -1.762   5.011   6.394  0.00  0.00    +0.129 HD
ENDBRANCH  76  77
ENDBRANCH  58  76
ENDBRANCH  54  58
ENDBRANCH  53  56
BRANCH  53  79
ATOM     79  CB  LEU A   3      -0.491  -1.998   3.009  0.00  0.00    +0.079 C 
BRANCH  79  80
ATOM     80  CG  LEU A   3      -1.899  -1.967   2.401  0.00  0.00    -0.016 C 
ATOM     81  CD1 LEU A   3      -1.878  -1.722   0.899  0.00  0.00    +0.014 C 
ATOM     82  CD2 LEU A   3      -2.589  -3.285   2.682  0.00  0.00    +0.014 C 
ENDBRANCH  79  80
ENDBRANCH  53  79
ENDBRANCH  49  53
ENDBRANCH  48  51
BRANCH  48  83
ATOM     83  CB  HIS A   4      -1.180   2.369  -0.466  0.00  0.00    +0.121 C 
BRANCH  83  84
ATOM     84  CG  HIS A   4      -2.396   2.081   0.358  0.00  0.00    +0.106 C 
ATOM     85  ND1 HIS A   4      -3.028   3.032   1.122  0.00  0.00    -0.355 N 
ATOM     86  CD2 HIS A   4      -3.083   0.924   0.529  0.00  0.00    +0.217 C 
ATOM     87  CE1 HIS A   4      -4.061   2.457   1.726  0.00  0.00    +0.170 C 
ATOM     88  NE2 HIS A   4      -4.113   1.178   1.399  0.00  0.00    -0.351 NA
ATOM     89  H   HIS A   4      -2.761   3.976   1.207  0.00  0.00    +0.174 HD
ENDBRANCH  83  84
ENDBRANCH  48  83
ENDBRANCH  44  48
ENDBRANCH   1  46
BRANCH   1  90
ATOM     90  CB  LEU A   5       3.221   4.244   2.077  0.00  0.00    +0.079 C 
BRANCH  90  91
ATOM     91  CG  LEU A   5       2.152   5.272   2.468  0.00  0.00    -0.016 C 
ATOM     92  CD2 LEU A   5       2.291   5.644   3.933  0.00  0.00    +0.014 C 
ATOM     93  CD1 LEU A   5       2.267   6.519   1.605  0.00  0.00    +0.014 C 
ENDBRANCH  90  91
ENDBRANCH   1  90
TORSDOF 35
