REMARK  Name = /mnt/hpc/home/25menglei/25wenshaohua/MD/yzy/docking/dc/peptides/pdb/fllhttr.pdb
REMARK  36 active torsions:
REMARK  status: ('A' for Active; 'I' for Inactive)
REMARK    1  A    between atoms: N_1  and  CA_2
REMARK    2  A    between atoms: CA_2  and  C_3
REMARK    3  A    between atoms: CA_2  and  CB_5
REMARK    4  A    between atoms: CB_5  and  CG_6
REMARK    5  A    between atoms: N_12  and  CA_13
REMARK    6  A    between atoms: CA_13  and  C_14
REMARK    7  A    between atoms: CA_13  and  CB_16
REMARK    8  A    between atoms: CB_16  and  CG_17
REMARK    9  A    between atoms: CG_17  and  CD2_18
REMARK   10  A    between atoms: CG_17  and  CD1_19
REMARK   11  A    between atoms: N_20  and  CA_21
REMARK   12  A    between atoms: CA_21  and  C_22
REMARK   13  A    between atoms: CA_21  and  CB_24
REMARK   14  A    between atoms: CB_24  and  CG_25
REMARK   15  A    between atoms: CG_25  and  CD1_26
REMARK   16  A    between atoms: CG_25  and  CD2_27
REMARK   17  A    between atoms: N_28  and  CA_29
REMARK   18  A    between atoms: CA_29  and  C_30
REMARK   19  A    between atoms: CA_29  and  CB_32
REMARK   20  A    between atoms: CB_32  and  CG_33
REMARK   21  A    between atoms: N_38  and  CA_39
REMARK   22  A    between atoms: CA_39  and  C_40
REMARK   23  A    between atoms: CA_39  and  CB_42
REMARK   24  A    between atoms: CB_42  and  OG1_43
REMARK   25  A    between atoms: CB_42  and  CG2_44
REMARK   26  A    between atoms: N_45  and  CA_46
REMARK   27  A    between atoms: CA_46  and  C_47
REMARK   28  A    between atoms: CA_46  and  CB_49
REMARK   29  A    between atoms: CB_49  and  OG1_50
REMARK   30  A    between atoms: CB_49  and  CG2_51
REMARK   31  A    between atoms: N_52  and  CA_53
REMARK   32  A    between atoms: CA_53  and  C_54
REMARK   33  A    between atoms: CA_53  and  CB_56
REMARK   34  A    between atoms: CB_56  and  CG_57
REMARK   35  A    between atoms: CG_57  and  CD_58
REMARK   36  A    between atoms: CD_58  and  NE_59
REMARK                            x       y       z     vdW  Elec       q    Type
REMARK                         _______ _______ _______ _____ _____    ______ ____
ROOT
ATOM      1  CA  HIS A   4       3.269   0.449  -0.483  0.00  0.00    +0.220 C 
ENDROOT
BRANCH   1   2
ATOM      2  C   HIS A   4       2.567  -0.827  -0.949  0.00  0.00    +0.171 C 
ATOM      3  O   HIS A   4       3.200  -1.809  -1.325  0.00  0.00    -0.375 OA
ATOM      4  N   THR A   5       1.272  -0.763  -0.900  0.00  0.00    -0.284 N 
ATOM      5  H   THR A   5       0.841   0.051  -0.551  0.00  0.00    +0.198 HD
BRANCH   4   6
ATOM      6  CA  THR A   5       0.440  -1.878  -1.354  0.00  0.00    +0.250 C 
BRANCH   6   7
ATOM      7  C   THR A   5       0.162  -1.769  -2.846  0.00  0.00    +0.178 C 
ATOM      8  O   THR A   5      -0.888  -1.270  -3.267  0.00  0.00    -0.373 OA
ATOM      9  N   THR A   6       1.083  -2.207  -3.606  0.00  0.00    -0.283 N 
ATOM     10  H   THR A   6       1.877  -2.610  -3.186  0.00  0.00    +0.198 HD
BRANCH   9  11
ATOM     11  CA  THR A   6       1.032  -2.148  -5.060  0.00  0.00    +0.250 C 
BRANCH  11  12
ATOM     12  C   THR A   6       0.500  -3.449  -5.655  0.00  0.00    +0.175 C 
ATOM     13  O   THR A   6       0.754  -4.534  -5.141  0.00  0.00    -0.374 OA
ATOM     14  N   ARG A   7      -0.212  -3.291  -6.728  0.00  0.00    -0.304 N 
ATOM     15  H   ARG A   7      -0.367  -2.379  -7.064  0.00  0.00    +0.192 HD
BRANCH  14  16
ATOM     16  CA  ARG A   7      -0.790  -4.413  -7.453  0.00  0.00    +0.151 C 
BRANCH  16  17
ATOM     17  C   ARG A   7       0.106  -4.835  -8.620  0.00  0.00    +0.046 C 
ATOM     18  OXT ARG A   7       0.988  -4.039  -9.014  0.00  0.00    -0.561 OA
ATOM     19  O   ARG A   7      -0.015  -5.904  -9.196  0.00  0.00    -0.561 OA
ENDBRANCH  16  17
BRANCH  16  20
ATOM     20  CB  ARG A   7      -2.189  -4.035  -7.982  0.00  0.00    +0.071 C 
BRANCH  20  21
ATOM     21  CG  ARG A   7      -3.237  -5.125  -7.903  0.00  0.00    +0.070 C 
BRANCH  21  22
ATOM     22  CD  ARG A   7      -4.300  -4.937  -8.966  0.00  0.00    +0.228 C 
BRANCH  22  23
ATOM     23  NE  ARG A   7      -4.059  -5.811 -10.114  0.00  0.00    -0.331 N 
ATOM     24  CZ  ARG A   7      -4.497  -5.570 -11.359  0.00  0.00    +0.115 C 
ATOM     25  NH2 ARG A   7      -5.186  -4.464 -11.630  0.00  0.00    -0.317 N 
ATOM     26  NH1 ARG A   7      -4.255  -6.438 -12.318  0.00  0.00    -0.359 NA
ATOM     27  H   ARG A   7      -3.539  -6.633  -9.963  0.00  0.00    +0.298 HD
ATOM     28  H   ARG A   7      -5.504  -4.294 -12.546  0.00  0.00    +0.294 HD
ATOM     29  H   ARG A   7      -5.378  -3.816 -10.914  0.00  0.00    +0.294 HD
ATOM     30  H   ARG A   7      -4.575  -6.263 -13.232  0.00  0.00    +0.232 HD
ATOM     31  H   ARG A   7      -3.754  -7.262 -12.121  0.00  0.00    +0.232 HD
ATOM     32  H   ARG A   7      -4.987  -6.022 -12.828  0.00  0.00    +0.232 HD
ENDBRANCH  22  23
ENDBRANCH  21  22
ENDBRANCH  20  21
ENDBRANCH  16  20
ENDBRANCH  14  16
ENDBRANCH  11  12
BRANCH  11  33
ATOM     33  CB  THR A   6       2.418  -1.825  -5.665  0.00  0.00    +0.150 C 
ATOM     34  CG2 THR A   6       2.401  -0.495  -6.387  0.00  0.00    +0.087 C 
BRANCH  33  35
ATOM     35  OG1 THR A   6       3.405  -1.786  -4.633  0.00  0.00    -0.445 OA
ATOM     36  H   THR A   6       3.183  -1.086  -3.999  0.00  0.00    +0.238 HD
ENDBRANCH  33  35
ENDBRANCH  11  33
ENDBRANCH   9  11
ENDBRANCH   6   7
BRANCH   6  37
ATOM     37  CB  THR A   5      -0.874  -1.968  -0.555  0.00  0.00    +0.150 C 
ATOM     38  CG2 THR A   5      -0.643  -2.561   0.821  0.00  0.00    +0.087 C 
BRANCH  37  39
ATOM     39  OG1 THR A   5      -1.469  -0.679  -0.424  0.00  0.00    -0.445 OA
ATOM     40  H   THR A   5      -0.870  -0.095   0.067  0.00  0.00    +0.238 HD
ENDBRANCH  37  39
ENDBRANCH   6  37
ENDBRANCH   4   6
ENDBRANCH   1   2
BRANCH   1  43
ATOM     41  C   LEU A   3       2.535   0.951   1.753  0.00  0.00    +0.168 C 
ATOM     42  O   LEU A   3       1.549   1.555   1.341  0.00  0.00    -0.375 OA
ATOM     43  N   HIS A   4       3.427   0.435   0.963  0.00  0.00    -0.291 N 
ATOM     44  H   HIS A   4       4.232   0.023   1.353  0.00  0.00    +0.195 HD
BRANCH  41  45
ATOM     45  CA  LEU A   3       2.815   0.802   3.248  0.00  0.00    +0.213 C 
BRANCH  45  48
ATOM     46  C   LEU A   2       4.700   2.021   4.130  0.00  0.00    +0.169 C 
ATOM     47  O   LEU A   2       5.442   1.043   4.062  0.00  0.00    -0.375 OA
ATOM     48  N   LEU A   3       3.462   1.998   3.784  0.00  0.00    -0.292 N 
ATOM     49  H   LEU A   3       2.928   2.819   3.884  0.00  0.00    +0.195 HD
BRANCH  46  50
ATOM     50  CA  LEU A   2       5.232   3.365   4.631  0.00  0.00    +0.215 C 
BRANCH  50  53
ATOM     51  C   PHE A   1       4.457   3.888   6.871  0.00  0.00    +0.160 C 
ATOM     52  O   PHE A   1       3.424   4.406   6.439  0.00  0.00    -0.369 OA
ATOM     53  N   LEU A   2       5.348   3.376   6.089  0.00  0.00    -0.290 N 
ATOM     54  H   LEU A   2       6.148   2.971   6.496  0.00  0.00    +0.197 HD
BRANCH  51  55
ATOM     55  CA  PHE A   1       4.754   3.886   8.375  0.00  0.00    +0.198 C 
BRANCH  55  56
ATOM     56  N   PHE A   1       5.226   5.221   8.793  0.00  0.00    +0.362 NA
ATOM     57  H   PHE A   1       6.045   5.479   8.243  0.00  0.00    +0.134 HD
ATOM     58  H   PHE A   1       5.473   5.200   9.782  0.00  0.00    +0.134 HD
ATOM     59  H   PHE A   1       4.486   5.906   8.642  0.00  0.00    +0.134 HD
ATOM     60  H   PHE A   1       5.883   4.518   9.132  0.00  0.00    +0.134 HD
ENDBRANCH  55  56
BRANCH  55  61
ATOM     61  CB  PHE A   1       3.520   3.478   9.191  0.00  0.00    +0.129 C 
BRANCH  61  62
ATOM     62  CG  PHE A   1       3.100   2.049   8.987  0.00  0.00    -0.070 A 
ATOM     63  CD2 PHE A   1       3.785   1.019   9.619  0.00  0.00    +0.009 A 
ATOM     64  CD1 PHE A   1       2.027   1.748   8.175  0.00  0.00    +0.009 A 
ATOM     65  CE2 PHE A   1       3.403  -0.289   9.437  0.00  0.00    +0.002 A 
ATOM     66  CE1 PHE A   1       1.635   0.424   7.986  0.00  0.00    +0.002 A 
ATOM     67  CZ  PHE A   1       2.327  -0.586   8.624  0.00  0.00    +0.001 A 
ENDBRANCH  61  62
ENDBRANCH  55  61
ENDBRANCH  51  55
ENDBRANCH  50  53
BRANCH  50  68
ATOM     68  CB  LEU A   2       6.587   3.707   3.989  0.00  0.00    +0.079 C 
BRANCH  68  69
ATOM     69  CG  LEU A   2       6.594   4.020   2.493  0.00  0.00    -0.016 C 
ATOM     70  CD2 LEU A   2       5.815   5.296   2.157  0.00  0.00    +0.014 C 
ATOM     71  CD1 LEU A   2       8.038   4.151   2.012  0.00  0.00    +0.014 C 
ENDBRANCH  68  69
ENDBRANCH  50  68
ENDBRANCH  46  50
ENDBRANCH  45  48
BRANCH  45  72
ATOM     72  CB  LEU A   3       1.544   0.456   4.042  0.00  0.00    +0.079 C 
BRANCH  72  73
ATOM     73  CG  LEU A   3       0.465   1.540   4.219  0.00  0.00    -0.016 C 
ATOM     74  CD1 LEU A   3      -0.713   1.325   3.252  0.00  0.00    +0.014 C 
ATOM     75  CD2 LEU A   3      -0.049   1.535   5.647  0.00  0.00    +0.014 C 
ENDBRANCH  72  73
ENDBRANCH  45  72
ENDBRANCH  41  45
ENDBRANCH   1  43
BRANCH   1  76
ATOM     76  CB  HIS A   4       4.626   0.616  -1.176  0.00  0.00    +0.121 C 
BRANCH  76  77
ATOM     77  CG  HIS A   4       4.995   2.052  -1.433  0.00  0.00    +0.106 C 
ATOM     78  ND1 HIS A   4       4.402   2.830  -2.408  0.00  0.00    -0.355 N 
ATOM     79  CD2 HIS A   4       5.931   2.826  -0.828  0.00  0.00    +0.217 C 
ATOM     80  CE1 HIS A   4       4.965   4.028  -2.386  0.00  0.00    +0.170 C 
ATOM     81  NE2 HIS A   4       5.897   4.058  -1.438  0.00  0.00    -0.351 NA
ATOM     82  H   HIS A   4       3.683   2.543  -3.016  0.00  0.00    +0.174 HD
ENDBRANCH  76  77
ENDBRANCH   1  76
TORSDOF 30
