REMARK  Name = /mnt/hpc/home/25menglei/25wenshaohua/MD/yzy/docking/dc/peptides/pdb/hlltlkkhv.pdb
REMARK  50 active torsions:
REMARK  status: ('A' for Active; 'I' for Inactive)
REMARK    1  A    between atoms: N_1  and  CA_2
REMARK    2  A    between atoms: CA_2  and  C_3
REMARK    3  A    between atoms: CA_2  and  CB_5
REMARK    4  A    between atoms: CB_5  and  CG_6
REMARK    5  A    between atoms: N_11  and  CA_12
REMARK    6  A    between atoms: CA_12  and  C_13
REMARK    7  A    between atoms: CA_12  and  CB_15
REMARK    8  A    between atoms: CB_15  and  CG_16
REMARK    9  A    between atoms: CG_16  and  CD2_17
REMARK   10  A    between atoms: CG_16  and  CD1_18
REMARK   11  A    between atoms: N_19  and  CA_20
REMARK   12  A    between atoms: CA_20  and  C_21
REMARK   13  A    between atoms: CA_20  and  CB_23
REMARK   14  A    between atoms: CB_23  and  CG_24
REMARK   15  A    between atoms: CG_24  and  CD2_25
REMARK   16  A    between atoms: CG_24  and  CD1_26
REMARK   17  A    between atoms: N_27  and  CA_28
REMARK   18  A    between atoms: CA_28  and  C_29
REMARK   19  A    between atoms: CA_28  and  CB_31
REMARK   20  A    between atoms: CB_31  and  OG1_32
REMARK   21  A    between atoms: CB_31  and  CG2_33
REMARK   22  A    between atoms: N_34  and  CA_35
REMARK   23  A    between atoms: CA_35  and  C_36
REMARK   24  A    between atoms: CA_35  and  CB_38
REMARK   25  A    between atoms: CB_38  and  CG_39
REMARK   26  A    between atoms: CG_39  and  CD2_40
REMARK   27  A    between atoms: CG_39  and  CD1_41
REMARK   28  A    between atoms: N_42  and  CA_43
REMARK   29  A    between atoms: CA_43  and  C_44
REMARK   30  A    between atoms: CA_43  and  CB_46
REMARK   31  A    between atoms: CB_46  and  CG_47
REMARK   32  A    between atoms: CG_47  and  CD_48
REMARK   33  A    between atoms: CD_48  and  CE_49
REMARK   34  A    between atoms: CE_49  and  NZ_50
REMARK   35  A    between atoms: N_51  and  CA_52
REMARK   36  A    between atoms: CA_52  and  C_53
REMARK   37  A    between atoms: CA_52  and  CB_55
REMARK   38  A    between atoms: CB_55  and  CG_56
REMARK   39  A    between atoms: CG_56  and  CD_57
REMARK   40  A    between atoms: CD_57  and  CE_58
REMARK   41  A    between atoms: CE_58  and  NZ_59
REMARK   42  A    between atoms: N_60  and  CA_61
REMARK   43  A    between atoms: CA_61  and  C_62
REMARK   44  A    between atoms: CA_61  and  CB_64
REMARK   45  A    between atoms: CB_64  and  CG_65
REMARK   46  A    between atoms: N_70  and  CA_71
REMARK   47  A    between atoms: CA_71  and  C_72
REMARK   48  A    between atoms: CA_71  and  CB_74
REMARK   49  A    between atoms: CB_74  and  CG1_75
REMARK   50  A    between atoms: CB_74  and  CG2_76
REMARK                            x       y       z     vdW  Elec       q    Type
REMARK                         _______ _______ _______ _____ _____    ______ ____
ROOT
ATOM      1  C   LEU A   5      -1.847  -0.697  -1.583  0.00  0.00    +0.168 C 
ATOM      2  O   LEU A   5      -2.732  -0.321  -2.345  0.00  0.00    -0.375 OA
ATOM      3  N   LYS A   6      -0.703  -1.101  -1.994  0.00  0.00    -0.292 N 
ATOM      4  H   LYS A   6      -0.032  -1.387  -1.333  0.00  0.00    +0.195 HD
ENDROOT
BRANCH   3   5
ATOM      5  CA  LYS A   6      -0.367  -1.149  -3.410  0.00  0.00    +0.213 C 
BRANCH   5   6
ATOM      6  C   LYS A   6      -1.305  -2.076  -4.172  0.00  0.00    +0.168 C 
ATOM      7  O   LYS A   6      -1.520  -1.901  -5.369  0.00  0.00    -0.376 OA
ATOM      8  N   LYS A   7      -1.877  -3.028  -3.471  0.00  0.00    -0.292 N 
ATOM      9  H   LYS A   7      -1.673  -3.096  -2.510  0.00  0.00    +0.195 HD
BRANCH   8  10
ATOM     10  CA  LYS A   7      -2.798  -3.983  -4.057  0.00  0.00    +0.213 C 
BRANCH  10  11
ATOM     11  C   LYS A   7      -4.183  -3.364  -4.235  0.00  0.00    +0.169 C 
ATOM     12  O   LYS A   7      -5.014  -3.897  -4.972  0.00  0.00    -0.375 OA
ATOM     13  N   HIS A   8      -4.422  -2.259  -3.538  0.00  0.00    -0.290 N 
ATOM     14  H   HIS A   8      -3.707  -1.886  -2.973  0.00  0.00    +0.196 HD
BRANCH  13  15
ATOM     15  CA  HIS A   8      -5.706  -1.586  -3.585  0.00  0.00    +0.228 C 
BRANCH  15  16
ATOM     16  C   HIS A   8      -5.677  -0.404  -4.545  0.00  0.00    +0.169 C 
ATOM     17  O   HIS A   8      -6.715   0.023  -5.049  0.00  0.00    -0.375 OA
ATOM     18  N   VAL A   9      -4.499   0.112  -4.782  0.00  0.00    -0.305 N 
ATOM     19  H   VAL A   9      -3.706  -0.285  -4.354  0.00  0.00    +0.192 HD
BRANCH  18  20
ATOM     20  CA  VAL A   9      -4.332   1.259  -5.663  0.00  0.00    +0.151 C 
BRANCH  20  21
ATOM     21  CB  VAL A   9      -3.664   2.438  -4.942  0.00  0.00    +0.017 C 
ATOM     22  CG1 VAL A   9      -3.562   3.640  -5.856  0.00  0.00    +0.025 C 
ATOM     23  CG2 VAL A   9      -4.431   2.798  -3.685  0.00  0.00    +0.025 C 
ENDBRANCH  20  21
BRANCH  20  24
ATOM     24  C   VAL A   9      -3.516   0.861  -6.883  0.00  0.00    +0.047 C 
ATOM     25  O   VAL A   9      -4.032   0.992  -8.021  0.00  0.00    -0.561 OA
ATOM     26  OXT VAL A   9      -2.411   0.385  -6.698  0.00  0.00    -0.561 OA
ENDBRANCH  20  24
ENDBRANCH  18  20
ENDBRANCH  15  16
BRANCH  15  27
ATOM     27  CB  HIS A   8      -6.107  -1.112  -2.186  0.00  0.00    +0.167 C 
BRANCH  27  28
ATOM     28  CG  HIS A   8      -6.603  -2.232  -1.313  0.00  0.00    -0.008 A 
ATOM     29  ND1 HIS A   8      -7.935  -2.418  -1.029  0.00  0.00    -0.334 N 
ATOM     30  CD2 HIS A   8      -5.947  -3.218  -0.675  0.00  0.00    +0.152 A 
ATOM     31  CE1 HIS A   8      -8.060  -3.479  -0.244  0.00  0.00    +0.182 A 
ATOM     32  NE2 HIS A   8      -6.874  -3.986  -0.011  0.00  0.00    -0.280 NA
ATOM     33  H   HIS A   8      -8.675  -1.856  -1.355  0.00  0.00    +0.189 HD
ENDBRANCH  27  28
ENDBRANCH  15  27
ENDBRANCH  13  15
ENDBRANCH  10  11
BRANCH  10  34
ATOM     34  CB  LYS A   7      -2.902  -5.232  -3.187  0.00  0.00    +0.078 C 
BRANCH  34  35
ATOM     35  CG  LYS A   7      -1.568  -5.824  -2.774  0.00  0.00    +0.025 C 
BRANCH  35  36
ATOM     36  CD  LYS A   7      -1.184  -7.018  -3.624  0.00  0.00    +0.033 C 
BRANCH  36  37
ATOM     37  CE  LYS A   7       0.004  -7.756  -3.037  0.00  0.00    +0.103 C 
BRANCH  37  38
ATOM     38  NZ  LYS A   7       0.483  -8.832  -3.923  0.00  0.00    +0.353 NA
ATOM     39  H   LYS A   7       0.788  -8.431  -4.810  0.00  0.00    +0.125 HD
ATOM     40  H   LYS A   7      -0.273  -9.496  -4.091  0.00  0.00    +0.125 HD
ATOM     41  H   LYS A   7       1.266  -9.313  -3.481  0.00  0.00    +0.125 HD
ATOM     42  H   LYS A   7      -0.216  -8.116  -3.725  0.00  0.00    +0.125 HD
ENDBRANCH  37  38
ENDBRANCH  36  37
ENDBRANCH  35  36
ENDBRANCH  34  35
ENDBRANCH  10  34
ENDBRANCH   8  10
ENDBRANCH   5   6
BRANCH   5  43
ATOM     43  CB  LYS A   6       1.076  -1.619  -3.587  0.00  0.00    +0.078 C 
BRANCH  43  44
ATOM     44  CG  LYS A   6       2.079  -0.484  -3.423  0.00  0.00    +0.025 C 
BRANCH  44  45
ATOM     45  CD  LYS A   6       2.300   0.234  -4.726  0.00  0.00    +0.033 C 
BRANCH  45  46
ATOM     46  CE  LYS A   6       3.517   1.152  -4.649  0.00  0.00    +0.103 C 
BRANCH  46  47
ATOM     47  NZ  LYS A   6       4.023   1.503  -5.995  0.00  0.00    +0.353 NA
ATOM     48  H   LYS A   6       3.297   1.998  -6.513  0.00  0.00    +0.125 HD
ATOM     49  H   LYS A   6       4.276   0.651  -6.496  0.00  0.00    +0.125 HD
ATOM     50  H   LYS A   6       4.844   2.101  -5.904  0.00  0.00    +0.125 HD
ATOM     51  H   LYS A   6       4.768   1.899  -5.421  0.00  0.00    +0.125 HD
ENDBRANCH  46  47
ENDBRANCH  45  46
ENDBRANCH  44  45
ENDBRANCH  43  44
ENDBRANCH   5  43
ENDBRANCH   3   5
BRANCH   1  52
ATOM     52  CA  LEU A   5      -2.073  -0.704  -0.078  0.00  0.00    +0.214 C 
BRANCH  52  55
ATOM     53  C   THR A   4      -1.646  -3.060   0.265  0.00  0.00    +0.177 C 
ATOM     54  O   THR A   4      -2.503  -3.390  -0.551  0.00  0.00    -0.373 OA
ATOM     55  N   LEU A   5      -1.364  -1.802   0.555  0.00  0.00    -0.291 N 
ATOM     56  H   LEU A   5      -0.659  -1.605   1.213  0.00  0.00    +0.196 HD
BRANCH  53  57
ATOM     57  CA  THR A   4      -0.832  -4.110   1.014  0.00  0.00    +0.250 C 
BRANCH  57  60
ATOM     58  C   LEU A   3       1.420  -3.675   0.277  0.00  0.00    +0.170 C 
ATOM     59  O   LEU A   3       1.171  -4.019  -0.878  0.00  0.00    -0.375 OA
ATOM     60  N   THR A   4       0.532  -3.660   1.240  0.00  0.00    -0.284 N 
ATOM     61  H   THR A   4       0.793  -3.338   2.133  0.00  0.00    +0.198 HD
BRANCH  58  62
ATOM     62  CA  LEU A   3       2.805  -3.190   0.670  0.00  0.00    +0.213 C 
BRANCH  62  65
ATOM     63  C   LEU A   2       2.930  -0.796   0.817  0.00  0.00    +0.169 C 
ATOM     64  O   LEU A   2       3.164  -0.658  -0.381  0.00  0.00    -0.375 OA
ATOM     65  N   LEU A   3       2.725  -1.935   1.399  0.00  0.00    -0.292 N 
ATOM     66  H   LEU A   3       2.510  -1.951   2.360  0.00  0.00    +0.195 HD
BRANCH  63  67
ATOM     67  CA  LEU A   2       2.852   0.408   1.752  0.00  0.00    +0.215 C 
BRANCH  67  70
ATOM     68  C   HIS A   1       2.725  -0.114   4.128  0.00  0.00    +0.161 C 
ATOM     69  O   HIS A   1       1.501  -0.011   4.146  0.00  0.00    -0.369 OA
ATOM     70  N   LEU A   2       3.441   0.071   3.038  0.00  0.00    -0.290 N 
ATOM     71  H   LEU A   2       4.419  -0.023   3.097  0.00  0.00    +0.197 HD
BRANCH  68  72
ATOM     72  CA  HIS A   1       3.480  -0.490   5.400  0.00  0.00    +0.205 C 
BRANCH  72  73
ATOM     73  N   HIS A   1       2.929   0.217   6.565  0.00  0.00    +0.362 NA
ATOM     74  H   HIS A   1       3.001   1.224   6.417  0.00  0.00    +0.134 HD
ATOM     75  H   HIS A   1       3.455  -0.042   7.400  0.00  0.00    +0.134 HD
ATOM     76  H   HIS A   1       1.949  -0.040   6.687  0.00  0.00    +0.134 HD
ATOM     77  H   HIS A   1       2.728   1.141   6.183  0.00  0.00    +0.134 HD
ENDBRANCH  72  73
BRANCH  72  78
ATOM     78  CB  HIS A   1       3.377  -1.997   5.613  0.00  0.00    +0.167 C 
BRANCH  78  79
ATOM     79  CG  HIS A   1       4.557  -2.574   6.333  0.00  0.00    -0.006 A 
ATOM     80  ND1 HIS A   1       5.361  -1.844   7.180  0.00  0.00    -0.333 N 
ATOM     81  CD2 HIS A   1       5.052  -3.851   6.325  0.00  0.00    +0.153 A 
ATOM     82  CE1 HIS A   1       6.304  -2.631   7.654  0.00  0.00    +0.183 A 
ATOM     83  NE2 HIS A   1       6.128  -3.851   7.151  0.00  0.00    -0.280 NA
ATOM     84  H   HIS A   1       5.249  -0.890   7.396  0.00  0.00    +0.189 HD
ENDBRANCH  78  79
ENDBRANCH  72  78
ENDBRANCH  68  72
ENDBRANCH  67  70
BRANCH  67  85
ATOM     85  CB  LEU A   2       3.574   1.609   1.153  0.00  0.00    +0.079 C 
BRANCH  85  86
ATOM     86  CG  LEU A   2       2.671   2.591   0.412  0.00  0.00    -0.016 C 
ATOM     87  CD2 LEU A   2       1.710   3.262   1.382  0.00  0.00    +0.014 C 
ATOM     88  CD1 LEU A   2       3.500   3.642  -0.306  0.00  0.00    +0.014 C 
ENDBRANCH  85  86
ENDBRANCH  67  85
ENDBRANCH  63  67
ENDBRANCH  62  65
BRANCH  62  89
ATOM     89  CB  LEU A   3       3.513  -4.231   1.540  0.00  0.00    +0.079 C 
BRANCH  89  90
ATOM     90  CG  LEU A   3       4.315  -5.274   0.773  0.00  0.00    -0.016 C 
ATOM     91  CD2 LEU A   3       5.278  -5.983   1.696  0.00  0.00    +0.014 C 
ATOM     92  CD1 LEU A   3       3.414  -6.280   0.099  0.00  0.00    +0.014 C 
ENDBRANCH  89  90
ENDBRANCH  62  89
ENDBRANCH  58  62
ENDBRANCH  57  60
BRANCH  57  93
ATOM     93  CB  THR A   4      -1.505  -4.433   2.352  0.00  0.00    +0.150 C 
ATOM     94  CG2 THR A   4      -2.794  -5.209   2.135  0.00  0.00    +0.087 C 
BRANCH  93  95
ATOM     95  OG1 THR A   4      -0.616  -5.215   3.151  0.00  0.00    -0.445 OA
ATOM     96  H   THR A   4      -0.413  -6.045   2.692  0.00  0.00    +0.238 HD
ENDBRANCH  93  95
ENDBRANCH  57  93
ENDBRANCH  53  57
ENDBRANCH  52  55
BRANCH  52  97
ATOM     97  CB  LEU A   5      -1.632   0.621   0.527  0.00  0.00    +0.079 C 
BRANCH  97  98
ATOM     98  CG  LEU A   5      -2.529   1.814   0.189  0.00  0.00    -0.016 C 
ATOM     99  CD2 LEU A   5      -3.903   1.637   0.801  0.00  0.00    +0.014 C 
ATOM    100  CD1 LEU A   5      -1.896   3.100   0.682  0.00  0.00    +0.014 C 
ENDBRANCH  97  98
ENDBRANCH  52  97
ENDBRANCH   1  52
TORSDOF 41
