REMARK  Name = /mnt/hpc/home/25menglei/25wenshaohua/MD/yzy/docking/dc/peptides/pdb/hlpllhrcc.pdb
REMARK  41 active torsions:
REMARK  status: ('A' for Active; 'I' for Inactive)
REMARK    1  A    between atoms: N_1  and  CA_2
REMARK    2  A    between atoms: CA_2  and  C_3
REMARK    3  A    between atoms: CA_2  and  CB_5
REMARK    4  A    between atoms: CB_5  and  CG_6
REMARK    5  A    between atoms: N_11  and  CA_12
REMARK    6  A    between atoms: CA_12  and  C_13
REMARK    7  A    between atoms: CA_12  and  CB_15
REMARK    8  A    between atoms: CB_15  and  CG_16
REMARK    9  A    between atoms: CG_16  and  CD1_17
REMARK   10  A    between atoms: CG_16  and  CD2_18
REMARK   11  A    between atoms: CA_20  and  C_21
REMARK   12  A    between atoms: N_26  and  CA_27
REMARK   13  A    between atoms: CA_27  and  C_28
REMARK   14  A    between atoms: CA_27  and  CB_30
REMARK   15  A    between atoms: CB_30  and  CG_31
REMARK   16  A    between atoms: CG_31  and  CD1_32
REMARK   17  A    between atoms: CG_31  and  CD2_33
REMARK   18  A    between atoms: N_34  and  CA_35
REMARK   19  A    between atoms: CA_35  and  C_36
REMARK   20  A    between atoms: CA_35  and  CB_38
REMARK   21  A    between atoms: CB_38  and  CG_39
REMARK   22  A    between atoms: CG_39  and  CD1_40
REMARK   23  A    between atoms: CG_39  and  CD2_41
REMARK   24  A    between atoms: N_42  and  CA_43
REMARK   25  A    between atoms: CA_43  and  C_44
REMARK   26  A    between atoms: CA_43  and  CB_46
REMARK   27  A    between atoms: CB_46  and  CG_47
REMARK   28  A    between atoms: N_52  and  CA_53
REMARK   29  A    between atoms: CA_53  and  C_54
REMARK   30  A    between atoms: CA_53  and  CB_56
REMARK   31  A    between atoms: CB_56  and  CG_57
REMARK   32  A    between atoms: CG_57  and  CD_58
REMARK   33  A    between atoms: CD_58  and  NE_59
REMARK   34  A    between atoms: N_63  and  CA_64
REMARK   35  A    between atoms: CA_64  and  C_65
REMARK   36  A    between atoms: CA_64  and  CB_67
REMARK   37  A    between atoms: CB_67  and  SG_68
REMARK   38  A    between atoms: N_69  and  CA_70
REMARK   39  A    between atoms: CA_70  and  C_71
REMARK   40  A    between atoms: CA_70  and  CB_73
REMARK   41  A    between atoms: CB_73  and  SG_74
REMARK                            x       y       z     vdW  Elec       q    Type
REMARK                         _______ _______ _______ _____ _____    ______ ____
ROOT
ATOM      1  C   LEU A   5       0.791   0.755   0.460  0.00  0.00    +0.169 C 
ATOM      2  O   LEU A   5       1.468   0.676  -0.562  0.00  0.00    -0.375 OA
ATOM      3  N   HIS A   6      -0.175   1.638   0.627  0.00  0.00    -0.290 N 
ATOM      4  H   HIS A   6      -0.667   1.672   1.479  0.00  0.00    +0.196 HD
ENDROOT
BRANCH   3   5
ATOM      5  CA  HIS A   6      -0.515   2.562  -0.446  0.00  0.00    +0.229 C 
BRANCH   5   6
ATOM      6  C   HIS A   6       0.616   3.556  -0.671  0.00  0.00    +0.171 C 
ATOM      7  O   HIS A   6       1.077   4.214   0.261  0.00  0.00    -0.375 OA
ATOM      8  N   ARG A   7       1.069   3.662  -1.890  0.00  0.00    -0.292 N 
ATOM      9  H   ARG A   7       0.653   3.120  -2.599  0.00  0.00    +0.195 HD
BRANCH   8  10
ATOM     10  CA  ARG A   7       2.167   4.552  -2.242  0.00  0.00    +0.215 C 
BRANCH  10  11
ATOM     11  C   ARG A   7       1.884   5.283  -3.547  0.00  0.00    +0.169 C 
ATOM     12  O   ARG A   7       2.591   5.107  -4.533  0.00  0.00    -0.375 OA
ATOM     13  N   CYS A   8       0.871   6.119  -3.566  0.00  0.00    -0.289 N 
ATOM     14  H   CYS A   8       0.335   6.226  -2.747  0.00  0.00    +0.196 HD
BRANCH  13  15
ATOM     15  CA  CYS A   8       0.503   6.899  -4.749  0.00  0.00    +0.228 C 
BRANCH  15  16
ATOM     16  C   CYS A   8       0.067   6.010  -5.911  0.00  0.00    +0.170 C 
ATOM     17  O   CYS A   8       0.905   5.406  -6.578  0.00  0.00    -0.375 OA
ATOM     18  N   CYS A   9      -1.232   5.950  -6.107  0.00  0.00    -0.302 N 
ATOM     19  H   CYS A   9      -1.842   6.428  -5.500  0.00  0.00    +0.193 HD
BRANCH  18  20
ATOM     20  CA  CYS A   9      -1.774   5.175  -7.224  0.00  0.00    +0.164 C 
BRANCH  20  21
ATOM     21  C   CYS A   9      -1.383   3.704  -7.148  0.00  0.00    +0.049 C 
ATOM     22  O   CYS A   9      -0.245   3.345  -7.443  0.00  0.00    -0.561 OA
ATOM     23  OXT CYS A   9      -2.264   2.894  -6.767  0.00  0.00    -0.561 OA
ENDBRANCH  20  21
BRANCH  20  24
ATOM     24  CB  CYS A   9      -1.317   5.773  -8.560  0.00  0.00    +0.139 C 
BRANCH  24  25
ATOM     25  SG  CYS A   9      -1.415   7.586  -8.643  0.00  0.00    -0.222 S 
ATOM     26  H   CYS A   9      -0.585   8.128  -7.712  0.00  0.00    +0.129 HD
ENDBRANCH  24  25
ENDBRANCH  20  24
ENDBRANCH  18  20
ENDBRANCH  15  16
BRANCH  15  27
ATOM     27  CB  CYS A   8       1.672   7.785  -5.188  0.00  0.00    +0.157 C 
BRANCH  27  28
ATOM     28  SG  CYS A   8       1.265   8.861  -6.578  0.00  0.00    -0.219 S 
ATOM     29  H   CYS A   8       0.264   9.708  -6.218  0.00  0.00    +0.129 HD
ENDBRANCH  27  28
ENDBRANCH  15  27
ENDBRANCH  13  15
ENDBRANCH  10  11
BRANCH  10  30
ATOM     30  CB  ARG A   7       3.479   3.773  -2.336  0.00  0.00    +0.089 C 
BRANCH  30  31
ATOM     31  CG  ARG A   7       3.444   2.673  -3.376  0.00  0.00    +0.073 C 
BRANCH  31  32
ATOM     32  CD  ARG A   7       4.824   2.073  -3.566  0.00  0.00    +0.228 C 
BRANCH  32  33
ATOM     33  NE  ARG A   7       4.834   1.147  -4.704  0.00  0.00    -0.331 N 
ATOM     34  CZ  ARG A   7       5.923   0.510  -5.126  0.00  0.00    +0.115 C 
ATOM     35  NH2 ARG A   7       7.082   0.685  -4.519  0.00  0.00    -0.317 N 
ATOM     36  NH1 ARG A   7       5.838  -0.290  -6.167  0.00  0.00    -0.359 NA
ATOM     37  H   ARG A   7       3.988   0.988  -5.182  0.00  0.00    +0.298 HD
ATOM     38  H   ARG A   7       7.882   0.209  -4.839  0.00  0.00    +0.294 HD
ATOM     39  H   ARG A   7       7.146   1.292  -3.746  0.00  0.00    +0.294 HD
ATOM     40  H   ARG A   7       4.973  -0.420  -6.619  0.00  0.00    +0.232 HD
ATOM     41  H   ARG A   7       6.639  -0.759  -6.494  0.00  0.00    +0.232 HD
ATOM     42  H   ARG A   7       6.391  -0.933  -5.667  0.00  0.00    +0.232 HD
ENDBRANCH  32  33
ENDBRANCH  31  32
ENDBRANCH  30  31
ENDBRANCH  10  30
ENDBRANCH   8  10
ENDBRANCH   5   6
BRANCH   5  43
ATOM     43  CB  HIS A   6      -1.791   3.321  -0.091  0.00  0.00    +0.168 C 
BRANCH  43  44
ATOM     44  CG  HIS A   6      -2.965   2.406   0.080  0.00  0.00    -0.008 A 
ATOM     45  ND1 HIS A   6      -3.675   1.890  -0.969  0.00  0.00    -0.334 N 
ATOM     46  CD2 HIS A   6      -3.528   1.927   1.210  0.00  0.00    +0.152 A 
ATOM     47  CE1 HIS A   6      -4.635   1.126  -0.492  0.00  0.00    +0.182 A 
ATOM     48  NE2 HIS A   6      -4.577   1.120   0.833  0.00  0.00    -0.280 NA
ATOM     49  H   HIS A   6      -3.498   2.061  -1.922  0.00  0.00    +0.189 HD
ENDBRANCH  43  44
ENDBRANCH   5  43
ENDBRANCH   3   5
BRANCH   1  50
ATOM     50  CA  LEU A   5       1.052  -0.153   1.652  0.00  0.00    +0.213 C 
BRANCH  50  53
ATOM     51  C   LEU A   4       0.557  -2.483   1.131  0.00  0.00    +0.168 C 
ATOM     52  O   LEU A   4      -0.630  -2.355   1.427  0.00  0.00    -0.375 OA
ATOM     53  N   LEU A   5       1.437  -1.489   1.208  0.00  0.00    -0.292 N 
ATOM     54  H   LEU A   5       2.374  -1.659   0.959  0.00  0.00    +0.195 HD
BRANCH  51  55
ATOM     55  CA  LEU A   4       1.103  -3.819   0.651  0.00  0.00    +0.213 C 
BRANCH  55  58
ATOM     56  C   PRO A   3       1.863  -4.645   2.799  0.00  0.00    +0.169 C 
ATOM     57  O   PRO A   3       2.622  -3.682   2.953  0.00  0.00    -0.375 OA
ATOM     58  N   LEU A   4       1.088  -4.788   1.731  0.00  0.00    -0.292 N 
ATOM     59  H   LEU A   4       0.490  -5.568   1.670  0.00  0.00    +0.195 HD
BRANCH  56  63
ATOM     60  C   LEU A   2       4.096  -5.984   4.497  0.00  0.00    +0.171 C 
ATOM     61  O   LEU A   2       4.407  -6.406   3.374  0.00  0.00    -0.374 OA
ATOM     62  N   PRO A   3       2.849  -5.654   4.820  0.00  0.00    -0.296 N 
ATOM     63  CA  PRO A   3       1.755  -5.737   3.855  0.00  0.00    +0.217 C 
ATOM     64  CB  PRO A   3       0.509  -5.541   4.708  0.00  0.00    +0.084 C 
ATOM     65  CG  PRO A   3       0.994  -4.721   5.868  0.00  0.00    +0.049 C 
ATOM     66  CD  PRO A   3       2.408  -5.187   6.128  0.00  0.00    +0.147 C 
BRANCH  60  67
ATOM     67  CA  LEU A   2       5.167  -5.822   5.575  0.00  0.00    +0.216 C 
BRANCH  67  70
ATOM     68  C   HIS A   1       5.921  -8.106   5.946  0.00  0.00    +0.161 C 
ATOM     69  O   HIS A   1       4.868  -8.430   6.489  0.00  0.00    -0.369 OA
ATOM     70  N   LEU A   2       6.153  -6.889   5.475  0.00  0.00    -0.290 N 
ATOM     71  H   LEU A   2       7.018  -6.701   5.045  0.00  0.00    +0.197 HD
BRANCH  68  72
ATOM     72  CA  HIS A   1       7.055  -9.109   5.802  0.00  0.00    +0.205 C 
BRANCH  72  73
ATOM     73  N   HIS A   1       7.073 -10.025   6.958  0.00  0.00    +0.362 NA
ATOM     74  H   HIS A   1       7.837 -10.693   6.851  0.00  0.00    +0.134 HD
ATOM     75  H   HIS A   1       6.187 -10.527   7.008  0.00  0.00    +0.134 HD
ATOM     76  H   HIS A   1       7.208  -9.488   7.815  0.00  0.00    +0.134 HD
ATOM     77  H   HIS A   1       7.189  -9.316   6.234  0.00  0.00    +0.134 HD
ENDBRANCH  72  73
BRANCH  72  78
ATOM     78  CB  HIS A   1       6.883  -9.907   4.512  0.00  0.00    +0.167 C 
BRANCH  78  79
ATOM     79  CG  HIS A   1       8.084 -10.764   4.210  0.00  0.00    -0.006 A 
ATOM     80  ND1 HIS A   1       9.203 -10.301   3.569  0.00  0.00    -0.333 N 
ATOM     81  CD2 HIS A   1       8.317 -12.069   4.487  0.00  0.00    +0.153 A 
ATOM     82  CE1 HIS A   1      10.082 -11.279   3.458  0.00  0.00    +0.183 A 
ATOM     83  NE2 HIS A   1       9.575 -12.381   4.014  0.00  0.00    -0.280 NA
ATOM     84  H   HIS A   1       9.331  -9.381   3.242  0.00  0.00    +0.189 HD
ENDBRANCH  78  79
ENDBRANCH  72  78
ENDBRANCH  68  72
ENDBRANCH  67  70
BRANCH  67  85
ATOM     85  CB  LEU A   2       5.845  -4.456   5.435  0.00  0.00    +0.079 C 
BRANCH  85  86
ATOM     86  CG  LEU A   2       6.851  -4.120   6.545  0.00  0.00    -0.016 C 
ATOM     87  CD1 LEU A   2       7.590  -2.818   6.205  0.00  0.00    +0.014 C 
ATOM     88  CD2 LEU A   2       6.157  -3.986   7.892  0.00  0.00    +0.014 C 
ENDBRANCH  85  86
ENDBRANCH  67  85
ENDBRANCH  60  67
ENDBRANCH  56  63
ENDBRANCH  55  58
BRANCH  55  89
ATOM     89  CB  LEU A   4       0.276  -4.317  -0.520  0.00  0.00    +0.079 C 
BRANCH  89  90
ATOM     90  CG  LEU A   4       0.842  -5.573  -1.173  0.00  0.00    -0.016 C 
ATOM     91  CD1 LEU A   4      -0.138  -6.093  -2.211  0.00  0.00    +0.014 C 
ATOM     92  CD2 LEU A   4       2.187  -5.294  -1.816  0.00  0.00    +0.014 C 
ENDBRANCH  89  90
ENDBRANCH  55  89
ENDBRANCH  51  55
ENDBRANCH  50  53
BRANCH  50  93
ATOM     93  CB  LEU A   5       2.146   0.442   2.522  0.00  0.00    +0.079 C 
BRANCH  93  94
ATOM     94  CG  LEU A   5       2.400  -0.333   3.808  0.00  0.00    -0.016 C 
ATOM     95  CD1 LEU A   5       3.582   0.278   4.536  0.00  0.00    +0.014 C 
ATOM     96  CD2 LEU A   5       1.165  -0.323   4.696  0.00  0.00    +0.014 C 
ENDBRANCH  93  94
ENDBRANCH  50  93
ENDBRANCH   1  50
TORSDOF 35
