REMARK  Name = /mnt/hpc/home/25menglei/25wenshaohua/MD/yzy/docking/dc/peptides/pdb/hvlllrqca.pdb
REMARK  45 active torsions:
REMARK  status: ('A' for Active; 'I' for Inactive)
REMARK    1  A    between atoms: N_1  and  CA_2
REMARK    2  A    between atoms: CA_2  and  C_3
REMARK    3  A    between atoms: CA_2  and  CB_5
REMARK    4  A    between atoms: CB_5  and  CG_6
REMARK    5  A    between atoms: N_11  and  CA_12
REMARK    6  A    between atoms: CA_12  and  C_13
REMARK    7  A    between atoms: CA_12  and  CB_15
REMARK    8  A    between atoms: CB_15  and  CG1_16
REMARK    9  A    between atoms: CB_15  and  CG2_17
REMARK   10  A    between atoms: N_18  and  CA_19
REMARK   11  A    between atoms: CA_19  and  C_20
REMARK   12  A    between atoms: CA_19  and  CB_22
REMARK   13  A    between atoms: CB_22  and  CG_23
REMARK   14  A    between atoms: CG_23  and  CD1_24
REMARK   15  A    between atoms: CG_23  and  CD2_25
REMARK   16  A    between atoms: N_26  and  CA_27
REMARK   17  A    between atoms: CA_27  and  C_28
REMARK   18  A    between atoms: CA_27  and  CB_30
REMARK   19  A    between atoms: CB_30  and  CG_31
REMARK   20  A    between atoms: CG_31  and  CD1_32
REMARK   21  A    between atoms: CG_31  and  CD2_33
REMARK   22  A    between atoms: N_34  and  CA_35
REMARK   23  A    between atoms: CA_35  and  C_36
REMARK   24  A    between atoms: CA_35  and  CB_38
REMARK   25  A    between atoms: CB_38  and  CG_39
REMARK   26  A    between atoms: CG_39  and  CD1_40
REMARK   27  A    between atoms: CG_39  and  CD2_41
REMARK   28  A    between atoms: N_42  and  CA_43
REMARK   29  A    between atoms: CA_43  and  C_44
REMARK   30  A    between atoms: CA_43  and  CB_46
REMARK   31  A    between atoms: CB_46  and  CG_47
REMARK   32  A    between atoms: CG_47  and  CD_48
REMARK   33  A    between atoms: CD_48  and  NE_49
REMARK   34  A    between atoms: N_53  and  CA_54
REMARK   35  A    between atoms: CA_54  and  C_55
REMARK   36  A    between atoms: CA_54  and  CB_57
REMARK   37  A    between atoms: CB_57  and  CG_58
REMARK   38  A    between atoms: CG_58  and  CD_59
REMARK   39  A    between atoms: N_62  and  CA_63
REMARK   40  A    between atoms: CA_63  and  C_64
REMARK   41  A    between atoms: CA_63  and  CB_66
REMARK   42  A    between atoms: CB_66  and  SG_67
REMARK   43  A    between atoms: N_68  and  CA_69
REMARK   44  A    between atoms: CA_69  and  C_70
REMARK   45  A    between atoms: CA_69  and  CB_72
REMARK                            x       y       z     vdW  Elec       q    Type
REMARK                         _______ _______ _______ _____ _____    ______ ____
ROOT
ATOM      1  CA  LEU A   5       0.499  -1.770  -0.830  0.00  0.00    +0.213 C 
ENDROOT
BRANCH   1   2
ATOM      2  C   LEU A   5       0.169  -0.364  -0.357  0.00  0.00    +0.168 C 
ATOM      3  O   LEU A   5      -0.695   0.302  -0.919  0.00  0.00    -0.375 OA
ATOM      4  N   ARG A   6       0.852   0.067   0.672  0.00  0.00    -0.292 N 
ATOM      5  H   ARG A   6       1.536  -0.516   1.074  0.00  0.00    +0.195 HD
BRANCH   4   6
ATOM      6  CA  ARG A   6       0.624   1.386   1.235  0.00  0.00    +0.214 C 
BRANCH   6   7
ATOM      7  C   ARG A   6       0.763   2.476   0.179  0.00  0.00    +0.168 C 
ATOM      8  O   ARG A   6      -0.015   3.425   0.161  0.00  0.00    -0.375 OA
ATOM      9  N   GLN A   7       1.730   2.358  -0.683  0.00  0.00    -0.292 N 
ATOM     10  H   GLN A   7       2.330   1.580  -0.621  0.00  0.00    +0.195 HD
BRANCH   9  11
ATOM     11  CA  GLN A   7       1.955   3.342  -1.741  0.00  0.00    +0.218 C 
BRANCH  11  12
ATOM     12  C   GLN A   7       1.218   2.968  -3.013  0.00  0.00    +0.169 C 
ATOM     13  O   GLN A   7       0.732   3.836  -3.733  0.00  0.00    -0.375 OA
ATOM     14  N   CYS A   8       1.144   1.669  -3.292  0.00  0.00    -0.289 N 
ATOM     15  H   CYS A   8       1.569   1.022  -2.684  0.00  0.00    +0.196 HD
BRANCH  14  16
ATOM     16  CA  CYS A   8       0.453   1.183  -4.469  0.00  0.00    +0.228 C 
BRANCH  16  17
ATOM     17  C   CYS A   8      -1.054   1.193  -4.265  0.00  0.00    +0.169 C 
ATOM     18  O   CYS A   8      -1.809   1.065  -5.220  0.00  0.00    -0.375 OA
ATOM     19  N   ALA A   9      -1.460   1.332  -3.034  0.00  0.00    -0.306 N 
ATOM     20  H   ALA A   9      -0.791   1.437  -2.319  0.00  0.00    +0.192 HD
BRANCH  19  21
ATOM     21  CA  ALA A   9      -2.875   1.336  -2.685  0.00  0.00    +0.145 C 
ATOM     22  CB  ALA A   9      -3.070   2.038  -1.354  0.00  0.00    +0.078 C 
BRANCH  21  23
ATOM     23  C   ALA A   9      -3.705   2.014  -3.771  0.00  0.00    +0.045 C 
ATOM     24  O   ALA A   9      -4.453   1.306  -4.483  0.00  0.00    -0.562 OA
ATOM     25  OXT ALA A   9      -3.630   3.207  -3.900  0.00  0.00    -0.562 OA
ENDBRANCH  21  23
ENDBRANCH  19  21
ENDBRANCH  16  17
BRANCH  16  26
ATOM     26  CB  CYS A   8       0.914  -0.244  -4.796  0.00  0.00    +0.157 C 
BRANCH  26  27
ATOM     27  SG  CYS A   8       2.560  -0.285  -5.535  0.00  0.00    -0.219 S 
ATOM     28  H   CYS A   8       3.464   0.228  -4.658  0.00  0.00    +0.129 HD
ENDBRANCH  26  27
ENDBRANCH  16  26
ENDBRANCH  14  16
ENDBRANCH  11  12
BRANCH  11  29
ATOM     29  CB  GLN A   7       3.448   3.490  -2.009  0.00  0.00    +0.113 C 
BRANCH  29  30
ATOM     30  CG  GLN A   7       4.089   2.253  -2.609  0.00  0.00    +0.194 C 
BRANCH  30  31
ATOM     31  CD  GLN A   7       4.268   2.426  -4.112  0.00  0.00    +0.136 C 
ATOM     32  OE1 GLN A   7       3.926   1.547  -4.903  0.00  0.00    -0.387 OA
ATOM     33  NE2 GLN A   7       4.808   3.556  -4.525  0.00  0.00    -0.326 N 
ATOM     34  H   GLN A   7       4.944   3.714  -5.487  0.00  0.00    +0.178 HD
ATOM     35  H   GLN A   7       5.075   4.242  -3.871  0.00  0.00    +0.178 HD
ENDBRANCH  30  31
ENDBRANCH  29  30
ENDBRANCH  11  29
ENDBRANCH   9  11
ENDBRANCH   6   7
BRANCH   6  36
ATOM     36  CB  ARG A   6       1.602   1.606   2.391  0.00  0.00    +0.089 C 
BRANCH  36  37
ATOM     37  CG  ARG A   6       1.900   3.060   2.649  0.00  0.00    +0.073 C 
BRANCH  37  38
ATOM     38  CD  ARG A   6       3.261   3.373   2.023  0.00  0.00    +0.228 C 
BRANCH  38  39
ATOM     39  NE  ARG A   6       3.768   4.655   2.509  0.00  0.00    -0.331 N 
ATOM     40  CZ  ARG A   6       4.815   5.260   1.998  0.00  0.00    +0.115 C 
ATOM     41  NH1 ARG A   6       5.473   4.715   0.993  0.00  0.00    -0.359 NA
ATOM     42  NH2 ARG A   6       5.212   6.415   2.478  0.00  0.00    -0.317 N 
ATOM     43  H   ARG A   6       3.300   5.088   3.259  0.00  0.00    +0.298 HD
ATOM     44  H   ARG A   6       6.258   5.172   0.613  0.00  0.00    +0.232 HD
ATOM     45  H   ARG A   6       5.179   3.851   0.623  0.00  0.00    +0.232 HD
ATOM     46  H   ARG A   6       6.014   4.023   0.549  0.00  0.00    +0.232 HD
ATOM     47  H   ARG A   6       5.998   6.865   2.091  0.00  0.00    +0.294 HD
ATOM     48  H   ARG A   6       4.724   6.832   3.225  0.00  0.00    +0.294 HD
ENDBRANCH  38  39
ENDBRANCH  37  38
ENDBRANCH  36  37
ENDBRANCH   6  36
ENDBRANCH   4   6
ENDBRANCH   1   2
BRANCH   1  51
ATOM     49  C   LEU A   4       2.818  -1.475  -1.436  0.00  0.00    +0.168 C 
ATOM     50  O   LEU A   4       2.523  -0.678  -2.312  0.00  0.00    -0.375 OA
ATOM     51  N   LEU A   5       1.919  -2.057  -0.674  0.00  0.00    -0.292 N 
ATOM     52  H   LEU A   5       2.210  -2.698   0.014  0.00  0.00    +0.195 HD
BRANCH  49  53
ATOM     53  CA  LEU A   4       4.271  -1.855  -1.165  0.00  0.00    +0.213 C 
BRANCH  53  56
ATOM     54  C   LEU A   3       4.374  -0.861   1.037  0.00  0.00    +0.168 C 
ATOM     55  O   LEU A   3       4.034   0.232   0.593  0.00  0.00    -0.375 OA
ATOM     56  N   LEU A   4       4.516  -1.932   0.268  0.00  0.00    -0.292 N 
ATOM     57  H   LEU A   4       4.790  -2.788   0.670  0.00  0.00    +0.195 HD
BRANCH  54  58
ATOM     58  CA  LEU A   3       4.653  -1.058   2.516  0.00  0.00    +0.213 C 
BRANCH  58  61
ATOM     59  C   VAL A   2       2.543  -2.125   3.036  0.00  0.00    +0.169 C 
ATOM     60  O   VAL A   2       1.900  -1.206   2.536  0.00  0.00    -0.375 OA
ATOM     61  N   LEU A   3       3.861  -2.146   3.071  0.00  0.00    -0.292 N 
ATOM     62  H   LEU A   3       4.319  -2.914   3.482  0.00  0.00    +0.195 HD
BRANCH  59  63
ATOM     63  CA  VAL A   2       1.831  -3.310   3.674  0.00  0.00    +0.216 C 
BRANCH  63  66
ATOM     64  C   HIS A   1       2.506  -5.386   2.613  0.00  0.00    +0.159 C 
ATOM     65  O   HIS A   1       1.710  -5.240   1.694  0.00  0.00    -0.370 OA
ATOM     66  N   VAL A   2       2.636  -4.525   3.603  0.00  0.00    -0.290 N 
ATOM     67  H   VAL A   2       3.293  -4.707   4.313  0.00  0.00    +0.198 HD
BRANCH  64  68
ATOM     68  CA  HIS A   1       3.405  -6.622   2.669  0.00  0.00    +0.196 C 
BRANCH  68  69
ATOM     69  N   HIS A   1       2.609  -7.857   2.760  0.00  0.00    +0.361 NA
ATOM     70  H   HIS A   1       3.234  -8.662   2.796  0.00  0.00    +0.134 HD
ATOM     71  H   HIS A   1       2.004  -7.932   1.942  0.00  0.00    +0.134 HD
ATOM     72  H   HIS A   1       2.038  -7.832   3.605  0.00  0.00    +0.134 HD
ATOM     73  H   HIS A   1       2.987  -7.848   3.707  0.00  0.00    +0.134 HD
ENDBRANCH  68  69
BRANCH  68  74
ATOM     74  CB  HIS A   1       4.268  -6.666   1.427  0.00  0.00    +0.120 C 
BRANCH  74  75
ATOM     75  CG  HIS A   1       5.702  -6.324   1.713  0.00  0.00    +0.108 C 
ATOM     76  ND1 HIS A   1       6.083  -5.276   2.507  0.00  0.00    -0.354 N 
ATOM     77  CD2 HIS A   1       6.844  -6.925   1.281  0.00  0.00    +0.219 C 
ATOM     78  CE1 HIS A   1       7.411  -5.241   2.555  0.00  0.00    +0.170 C 
ATOM     79  NE2 HIS A   1       7.888  -6.228   1.817  0.00  0.00    -0.351 NA
ATOM     80  H   HIS A   1       5.475  -4.652   2.966  0.00  0.00    +0.174 HD
ENDBRANCH  74  75
ENDBRANCH  68  74
ENDBRANCH  64  68
ENDBRANCH  63  66
BRANCH  63  81
ATOM     81  CB  VAL A   2       1.501  -2.978   5.131  0.00  0.00    +0.032 C 
ATOM     82  CG1 VAL A   2       0.803  -1.638   5.232  0.00  0.00    +0.028 C 
ATOM     83  CG2 VAL A   2       0.647  -4.072   5.731  0.00  0.00    +0.028 C 
ENDBRANCH  63  81
ENDBRANCH  59  63
ENDBRANCH  58  61
BRANCH  58  84
ATOM     84  CB  LEU A   3       6.136  -1.328   2.756  0.00  0.00    +0.079 C 
BRANCH  84  85
ATOM     85  CG  LEU A   3       6.796  -0.266   3.606  0.00  0.00    -0.016 C 
ATOM     86  CD1 LEU A   3       6.703   1.087   2.931  0.00  0.00    +0.014 C 
ATOM     87  CD2 LEU A   3       6.135  -0.229   4.976  0.00  0.00    +0.014 C 
ENDBRANCH  84  85
ENDBRANCH  58  84
ENDBRANCH  54  58
ENDBRANCH  53  56
BRANCH  53  88
ATOM     88  CB  LEU A   4       4.604  -3.191  -1.813  0.00  0.00    +0.079 C 
BRANCH  88  89
ATOM     89  CG  LEU A   4       3.799  -4.361  -1.279  0.00  0.00    -0.016 C 
ATOM     90  CD1 LEU A   4       2.489  -4.490  -2.053  0.00  0.00    +0.014 C 
ATOM     91  CD2 LEU A   4       4.595  -5.646  -1.413  0.00  0.00    +0.014 C 
ENDBRANCH  88  89
ENDBRANCH  53  88
ENDBRANCH  49  53
ENDBRANCH   1  51
BRANCH   1  92
ATOM     92  CB  LEU A   5      -0.312  -2.790  -0.031  0.00  0.00    +0.079 C 
BRANCH  92  93
ATOM     93  CG  LEU A   5      -1.591  -2.247   0.577  0.00  0.00    -0.016 C 
ATOM     94  CD1 LEU A   5      -2.615  -1.938  -0.512  0.00  0.00    +0.014 C 
ATOM     95  CD2 LEU A   5      -2.179  -3.260   1.562  0.00  0.00    +0.014 C 
ENDBRANCH  92  93
ENDBRANCH   1  92
TORSDOF 36
