REMARK  Name = /mnt/hpc/home/25menglei/25wenshaohua/MD/yzy/docking/dc/peptides/pdb/llhlpkrtt.pdb
REMARK  46 active torsions:
REMARK  status: ('A' for Active; 'I' for Inactive)
REMARK    1  A    between atoms: N_1  and  CA_2
REMARK    2  A    between atoms: CA_2  and  C_3
REMARK    3  A    between atoms: CA_2  and  CB_5
REMARK    4  A    between atoms: CB_5  and  CG_6
REMARK    5  A    between atoms: CG_6  and  CD1_7
REMARK    6  A    between atoms: CG_6  and  CD2_8
REMARK    7  A    between atoms: N_9  and  CA_10
REMARK    8  A    between atoms: CA_10  and  C_11
REMARK    9  A    between atoms: CA_10  and  CB_13
REMARK   10  A    between atoms: CB_13  and  CG_14
REMARK   11  A    between atoms: CG_14  and  CD2_15
REMARK   12  A    between atoms: CG_14  and  CD1_16
REMARK   13  A    between atoms: N_17  and  CA_18
REMARK   14  A    between atoms: CA_18  and  C_19
REMARK   15  A    between atoms: CA_18  and  CB_21
REMARK   16  A    between atoms: CB_21  and  CG_22
REMARK   17  A    between atoms: N_27  and  CA_28
REMARK   18  A    between atoms: CA_28  and  C_29
REMARK   19  A    between atoms: CA_28  and  CB_31
REMARK   20  A    between atoms: CB_31  and  CG_32
REMARK   21  A    between atoms: CG_32  and  CD1_33
REMARK   22  A    between atoms: CG_32  and  CD2_34
REMARK   23  A    between atoms: CA_36  and  C_37
REMARK   24  A    between atoms: N_42  and  CA_43
REMARK   25  A    between atoms: CA_43  and  C_44
REMARK   26  A    between atoms: CA_43  and  CB_46
REMARK   27  A    between atoms: CB_46  and  CG_47
REMARK   28  A    between atoms: CG_47  and  CD_48
REMARK   29  A    between atoms: CD_48  and  CE_49
REMARK   30  A    between atoms: CE_49  and  NZ_50
REMARK   31  A    between atoms: N_51  and  CA_52
REMARK   32  A    between atoms: CA_52  and  C_53
REMARK   33  A    between atoms: CA_52  and  CB_55
REMARK   34  A    between atoms: CB_55  and  CG_56
REMARK   35  A    between atoms: CG_56  and  CD_57
REMARK   36  A    between atoms: CD_57  and  NE_58
REMARK   37  A    between atoms: N_62  and  CA_63
REMARK   38  A    between atoms: CA_63  and  C_64
REMARK   39  A    between atoms: CA_63  and  CB_66
REMARK   40  A    between atoms: CB_66  and  OG1_67
REMARK   41  A    between atoms: CB_66  and  CG2_68
REMARK   42  A    between atoms: N_69  and  CA_70
REMARK   43  A    between atoms: CA_70  and  C_71
REMARK   44  A    between atoms: CA_70  and  CB_73
REMARK   45  A    between atoms: CB_73  and  OG1_74
REMARK   46  A    between atoms: CB_73  and  CG2_75
REMARK                            x       y       z     vdW  Elec       q    Type
REMARK                         _______ _______ _______ _____ _____    ______ ____
ROOT
ATOM      1  C   PRO A   5      -1.459  -0.370  -0.160  0.00  0.00    +0.169 C 
ATOM      2  O   PRO A   5      -1.650  -0.851  -1.280  0.00  0.00    -0.375 OA
ATOM      3  N   LYS A   6      -2.430  -0.104   0.722  0.00  0.00    -0.292 N 
ATOM      4  H   LYS A   6      -2.204   0.292   1.595  0.00  0.00    +0.195 HD
ENDROOT
BRANCH   1   8
ATOM      5  C   LEU A   4       1.031  -2.244   0.099  0.00  0.00    +0.171 C 
ATOM      6  O   LEU A   4       0.279  -2.731   0.946  0.00  0.00    -0.374 OA
ATOM      7  N   PRO A   5       0.941  -0.951  -0.269  0.00  0.00    -0.296 N 
ATOM      8  CA  PRO A   5      -0.043  -0.042   0.308  0.00  0.00    +0.217 C 
ATOM      9  CB  PRO A   5       0.402   1.332  -0.195  0.00  0.00    +0.084 C 
ATOM     10  CG  PRO A   5       1.172   1.038  -1.458  0.00  0.00    +0.049 C 
ATOM     11  CD  PRO A   5       1.823  -0.299  -1.236  0.00  0.00    +0.147 C 
BRANCH   5  12
ATOM     12  CA  LEU A   4       2.077  -3.120  -0.589  0.00  0.00    +0.215 C 
BRANCH  12  15
ATOM     13  C   HIS A   3       4.454  -2.850  -0.262  0.00  0.00    +0.171 C 
ATOM     14  O   HIS A   3       4.618  -2.424  -1.408  0.00  0.00    -0.375 OA
ATOM     15  N   LEU A   4       3.291  -3.212   0.217  0.00  0.00    -0.292 N 
ATOM     16  H   LEU A   4       3.234  -3.553   1.139  0.00  0.00    +0.195 HD
BRANCH  13  17
ATOM     17  CA  HIS A   3       5.632  -3.033   0.689  0.00  0.00    +0.229 C 
BRANCH  17  20
ATOM     18  C   LEU A   2       6.358  -5.189   1.563  0.00  0.00    +0.169 C 
ATOM     19  O   LEU A   2       6.074  -4.874   2.714  0.00  0.00    -0.375 OA
ATOM     20  N   HIS A   3       6.185  -4.376   0.534  0.00  0.00    -0.290 N 
ATOM     21  H   HIS A   3       6.437  -4.686  -0.366  0.00  0.00    +0.196 HD
BRANCH  18  22
ATOM     22  CA  LEU A   2       6.928  -6.568   1.247  0.00  0.00    +0.215 C 
BRANCH  22  25
ATOM     23  C   LEU A   1       9.317  -6.916   0.801  0.00  0.00    +0.158 C 
ATOM     24  O   LEU A   1       9.108  -7.132  -0.391  0.00  0.00    -0.370 OA
ATOM     25  N   LEU A   2       8.323  -6.645   1.660  0.00  0.00    -0.290 N 
ATOM     26  H   LEU A   2       8.545  -6.492   2.607  0.00  0.00    +0.197 HD
BRANCH  23  27
ATOM     27  CA  LEU A   1      10.736  -6.949   1.350  0.00  0.00    +0.189 C 
BRANCH  27  28
ATOM     28  N   LEU A   1      11.232  -8.336   1.382  0.00  0.00    +0.361 NA
ATOM     29  H   LEU A   1      12.183  -8.349   1.751  0.00  0.00    +0.133 HD
ATOM     30  H   LEU A   1      11.229  -8.720   0.437  0.00  0.00    +0.133 HD
ATOM     31  H   LEU A   1      10.628  -8.899   1.980  0.00  0.00    +0.133 HD
ATOM     32  H   LEU A   1      10.928  -7.822   0.555  0.00  0.00    +0.133 HD
ENDBRANCH  27  28
BRANCH  27  33
ATOM     33  CB  LEU A   1      11.668  -6.076   0.505  0.00  0.00    +0.078 C 
BRANCH  33  34
ATOM     34  CG  LEU A   1      11.614  -4.582   0.820  0.00  0.00    -0.014 C 
ATOM     35  CD1 LEU A   1      12.816  -3.875   0.220  0.00  0.00    +0.016 C 
ATOM     36  CD2 LEU A   1      10.324  -3.939   0.324  0.00  0.00    +0.016 C 
ENDBRANCH  33  34
ENDBRANCH  27  33
ENDBRANCH  23  27
ENDBRANCH  22  25
BRANCH  22  37
ATOM     37  CB  LEU A   2       6.108  -7.640   1.949  0.00  0.00    +0.079 C 
BRANCH  37  38
ATOM     38  CG  LEU A   2       6.427  -9.072   1.516  0.00  0.00    -0.016 C 
ATOM     39  CD2 LEU A   2       7.640  -9.610   2.263  0.00  0.00    +0.014 C 
ATOM     40  CD1 LEU A   2       5.222  -9.974   1.751  0.00  0.00    +0.014 C 
ENDBRANCH  37  38
ENDBRANCH  22  37
ENDBRANCH  18  22
ENDBRANCH  17  20
BRANCH  17  41
ATOM     41  CB  HIS A   3       6.712  -1.989   0.415  0.00  0.00    +0.168 C 
BRANCH  41  42
ATOM     42  CG  HIS A   3       6.276  -0.606   0.794  0.00  0.00    -0.008 A 
ATOM     43  ND1 HIS A   3       5.649   0.255  -0.074  0.00  0.00    -0.334 N 
ATOM     44  CD2 HIS A   3       6.399   0.066   1.966  0.00  0.00    +0.152 A 
ATOM     45  CE1 HIS A   3       5.403   1.391   0.569  0.00  0.00    +0.182 A 
ATOM     46  NE2 HIS A   3       5.838   1.306   1.814  0.00  0.00    -0.280 NA
ATOM     47  H   HIS A   3       5.421   0.063  -1.012  0.00  0.00    +0.189 HD
ENDBRANCH  41  42
ENDBRANCH  17  41
ENDBRANCH  13  17
ENDBRANCH  12  15
BRANCH  12  48
ATOM     48  CB  LEU A   4       1.502  -4.517  -0.863  0.00  0.00    +0.079 C 
BRANCH  48  49
ATOM     49  CG  LEU A   4       0.287  -4.551  -1.802  0.00  0.00    -0.016 C 
ATOM     50  CD1 LEU A   4       0.694  -4.200  -3.230  0.00  0.00    +0.014 C 
ATOM     51  CD2 LEU A   4      -0.358  -5.941  -1.789  0.00  0.00    +0.014 C 
ENDBRANCH  48  49
ENDBRANCH  12  48
ENDBRANCH   5  12
ENDBRANCH   1   8
BRANCH   3  52
ATOM     52  CA  LYS A   6      -3.827  -0.399   0.395  0.00  0.00    +0.213 C 
BRANCH  52  53
ATOM     53  C   LYS A   6      -4.350   0.515  -0.705  0.00  0.00    +0.168 C 
ATOM     54  O   LYS A   6      -5.228   0.127  -1.471  0.00  0.00    -0.376 OA
ATOM     55  N   ARG A   7      -3.827   1.747  -0.769  0.00  0.00    -0.292 N 
ATOM     56  H   ARG A   7      -3.124   2.001  -0.129  0.00  0.00    +0.195 HD
BRANCH  55  57
ATOM     57  CA  ARG A   7      -4.270   2.728  -1.763  0.00  0.00    +0.215 C 
BRANCH  57  58
ATOM     58  C   ARG A   7      -3.100   3.545  -2.280  0.00  0.00    +0.170 C 
ATOM     59  O   ARG A   7      -2.325   4.084  -1.496  0.00  0.00    -0.375 OA
ATOM     60  N   THR A   8      -3.005   3.645  -3.618  0.00  0.00    -0.284 N 
ATOM     61  H   THR A   8      -3.667   3.182  -4.181  0.00  0.00    +0.198 HD
BRANCH  60  62
ATOM     62  CA  THR A   8      -1.945   4.423  -4.259  0.00  0.00    +0.250 C 
BRANCH  62  63
ATOM     63  C   THR A   8      -2.504   5.183  -5.450  0.00  0.00    +0.176 C 
ATOM     64  O   THR A   8      -2.936   4.587  -6.435  0.00  0.00    -0.373 OA
ATOM     65  N   THR A   9      -2.489   6.521  -5.338  0.00  0.00    -0.296 N 
ATOM     66  H   THR A   9      -2.129   6.932  -4.519  0.00  0.00    +0.194 HD
BRANCH  65  67
ATOM     67  CA  THR A   9      -2.994   7.379  -6.403  0.00  0.00    +0.186 C 
BRANCH  67  68
ATOM     68  C   THR A   9      -1.966   8.462  -6.734  0.00  0.00    +0.055 C 
ATOM     69  OXT THR A   9      -1.724   9.326  -5.897  0.00  0.00    -0.559 OA
ATOM     70  O   THR A   9      -1.359   8.422  -7.844  0.00  0.00    -0.559 OA
ENDBRANCH  67  68
BRANCH  67  71
ATOM     71  CB  THR A   9      -4.329   8.026  -5.999  0.00  0.00    +0.135 C 
ATOM     72  CG2 THR A   9      -5.504   7.356  -6.687  0.00  0.00    +0.084 C 
BRANCH  71  73
ATOM     73  OG1 THR A   9      -4.494   7.922  -4.589  0.00  0.00    -0.447 OA
ATOM     74  H   THR A   9      -4.514   6.986  -4.334  0.00  0.00    +0.237 HD
ENDBRANCH  71  73
ENDBRANCH  67  71
ENDBRANCH  65  67
ENDBRANCH  62  63
BRANCH  62  75
ATOM     75  CB  THR A   8      -0.809   3.521  -4.747  0.00  0.00    +0.150 C 
ATOM     76  CG2 THR A   8       0.430   4.327  -5.069  0.00  0.00    +0.087 C 
BRANCH  75  77
ATOM     77  OG1 THR A   8      -0.496   2.549  -3.753  0.00  0.00    -0.445 OA
ATOM     78  H   THR A   8      -0.198   2.997  -2.946  0.00  0.00    +0.238 HD
ENDBRANCH  75  77
ENDBRANCH  62  75
ENDBRANCH  60  62
ENDBRANCH  57  58
BRANCH  57  79
ATOM     79  CB  ARG A   7      -5.329   3.635  -1.150  0.00  0.00    +0.089 C 
BRANCH  79  80
ATOM     80  CG  ARG A   7      -6.011   4.550  -2.144  0.00  0.00    +0.073 C 
BRANCH  80  81
ATOM     81  CD  ARG A   7      -6.748   3.767  -3.229  0.00  0.00    +0.228 C 
BRANCH  81  82
ATOM     82  NE  ARG A   7      -8.029   4.376  -3.600  0.00  0.00    -0.331 N 
ATOM     83  CZ  ARG A   7      -8.745   4.023  -4.663  0.00  0.00    +0.115 C 
ATOM     84  NH1 ARG A   7      -8.312   3.075  -5.488  0.00  0.00    -0.359 NA
ATOM     85  NH2 ARG A   7      -9.890   4.610  -4.919  0.00  0.00    -0.317 N 
ATOM     86  H   ARG A   7      -8.382   5.093  -3.025  0.00  0.00    +0.298 HD
ATOM     87  H   ARG A   7      -8.850   2.821  -6.272  0.00  0.00    +0.232 HD
ATOM     88  H   ARG A   7      -7.453   2.626  -5.315  0.00  0.00    +0.232 HD
ATOM     89  H   ARG A   7      -8.269   3.800  -6.152  0.00  0.00    +0.232 HD
ATOM     90  H   ARG A   7     -10.414   4.343  -5.708  0.00  0.00    +0.294 HD
ATOM     91  H   ARG A   7     -10.225   5.317  -4.322  0.00  0.00    +0.294 HD
ENDBRANCH  81  82
ENDBRANCH  80  81
ENDBRANCH  79  80
ENDBRANCH  57  79
ENDBRANCH  55  57
ENDBRANCH  52  53
BRANCH  52  92
ATOM     92  CB  LYS A   6      -4.691  -0.277   1.641  0.00  0.00    +0.078 C 
BRANCH  92  93
ATOM     93  CG  LYS A   6      -4.332  -1.267   2.717  0.00  0.00    +0.025 C 
BRANCH  93  94
ATOM     94  CD  LYS A   6      -4.773  -2.684   2.359  0.00  0.00    +0.033 C 
BRANCH  94  95
ATOM     95  CE  LYS A   6      -6.280  -2.878   2.502  0.00  0.00    +0.103 C 
BRANCH  95  96
ATOM     96  NZ  LYS A   6      -6.681  -4.275   2.242  0.00  0.00    +0.353 NA
ATOM     97  H   LYS A   6      -6.229  -4.890   2.919  0.00  0.00    +0.125 HD
ATOM     98  H   LYS A   6      -6.397  -4.540   1.299  0.00  0.00    +0.125 HD
ATOM     99  H   LYS A   6      -7.694  -4.360   2.329  0.00  0.00    +0.125 HD
ATOM    100  H   LYS A   6      -6.125  -4.790   2.925  0.00  0.00    +0.125 HD
ENDBRANCH  95  96
ENDBRANCH  94  95
ENDBRANCH  93  94
ENDBRANCH  92  93
ENDBRANCH  52  92
ENDBRANCH   3  52
TORSDOF 38
