REMARK SMILES CC(C)C[C@H](NC(=O)[C@H](CCCNC(=N)N)NC(=O)[C@H](CC(C)C)NC(=O)[C@@H]1CCCN1C(=O)[C@H](Cc1c[nH]cn1)NC(=O)[C@H](CC(C)C)NC(=O)[C@@H](N)CC(C)C)C(=O)O
REMARK SMILES IDX 32 1 31 2 30 3 29 4 28 5 33 6 34 7 35 8 42 9 43 10 44 11
REMARK SMILES IDX 45 13 50 14 51 15 52 16 53 18 54 19 55 22 56 23 57 24 58 25
REMARK SMILES IDX 46 26 47 27 48 28 49 29 36 30 37 31 38 32 41 33 39 34 40 35
REMARK SMILES IDX 26 37 27 38 25 39 20 41 21 42 22 43 23 44 24 45 18 46 19 47
REMARK SMILES IDX 17 48 9 50 10 51 11 52 12 53 13 54 14 55 15 56 16 57 7 62
REMARK SMILES IDX 8 63 6 64 5 66 4 67 2 68 1 69 3 70 59 71 60 72 61 73
REMARK H PARENT 42 12 50 17 54 20 54 21 39 36 25 40 17 49 13 58 15 59 16 60
REMARK H PARENT 16 61 6 65 61 74
ROOT
ATOM      1  N   UNL     1       1.468  -0.369  -1.139  1.00  0.00    -0.329 N 
ATOM      2  C   UNL     1       0.937  -1.288  -2.137  1.00  0.00     0.120 C 
ATOM      3  C   UNL     1       0.371  -0.429  -3.256  1.00  0.00     0.024 C 
ATOM      4  C   UNL     1       1.069   0.911  -3.086  1.00  0.00     0.037 C 
ATOM      5  C   UNL     1       1.348   1.020  -1.587  1.00  0.00     0.174 C 
ENDROOT
BRANCH   1   6
ATOM      6  C   UNL     1       2.176  -0.902  -0.084  1.00  0.00     0.246 C 
ATOM      7  O   UNL     1       2.077  -2.120   0.140  1.00  0.00    -0.272 OA
BRANCH   6   8
ATOM      8  C   UNL     1       3.217  -0.112   0.754  1.00  0.00     0.177 C 
BRANCH   8   9
ATOM      9  N   UNL     1       4.569  -0.402   0.255  1.00  0.00    -0.342 N 
ATOM     10  C   UNL     1       5.043   0.041  -0.961  1.00  0.00     0.243 C 
ATOM     11  O   UNL     1       4.344   0.619  -1.788  1.00  0.00    -0.273 OA
ATOM     12  H   UNL     1       5.269  -0.396   0.985  1.00  0.00     0.164 HD
BRANCH  10  13
ATOM     13  C   UNL     1       6.488  -0.411  -1.294  1.00  0.00     0.171 C 
BRANCH  13  14
ATOM     14  N   UNL     1       7.190  -0.857  -0.091  1.00  0.00    -0.343 N 
ATOM     15  C   UNL     1       7.884   0.037   0.702  1.00  0.00     0.237 C 
ATOM     16  O   UNL     1       8.093   1.201   0.365  1.00  0.00    -0.273 OA
ATOM     17  H   UNL     1       6.908  -1.742   0.308  1.00  0.00     0.164 HD
BRANCH  15  18
ATOM     18  C   UNL     1       8.371  -0.524   2.056  1.00  0.00     0.141 C 
BRANCH  18  19
ATOM     19  N   UNL     1       7.214  -1.062   2.809  1.00  0.00    -0.320 NA
ATOM     20  H   UNL     1       6.472  -0.351   2.854  1.00  0.00     0.119 HD
ATOM     21  H   UNL     1       6.819  -1.885   2.366  1.00  0.00     0.119 HD
ENDBRANCH  18  19
BRANCH  18  22
ATOM     22  C   UNL     1       9.432  -1.627   1.920  1.00  0.00     0.032 C 
BRANCH  22  23
ATOM     23  C   UNL     1      10.867  -1.186   1.550  1.00  0.00    -0.015 C 
ATOM     24  C   UNL     1      11.012  -0.698   0.111  1.00  0.00     0.007 C 
ATOM     25  C   UNL     1      11.435  -0.150   2.522  1.00  0.00     0.007 C 
ENDBRANCH  22  23
ENDBRANCH  18  22
ENDBRANCH  15  18
ENDBRANCH  13  14
BRANCH  13  26
ATOM     26  C   UNL     1       6.375  -1.529  -2.349  1.00  0.00     0.038 C 
BRANCH  26  27
ATOM     27  C   UNL     1       7.678  -2.083  -2.956  1.00  0.00    -0.015 C 
ATOM     28  C   UNL     1       8.683  -0.996  -3.323  1.00  0.00     0.007 C 
ATOM     29  C   UNL     1       8.321  -3.154  -2.076  1.00  0.00     0.007 C 
ENDBRANCH  26  27
ENDBRANCH  13  26
ENDBRANCH  10  13
ENDBRANCH   8   9
BRANCH   8  30
ATOM     30  C   UNL     1       2.981   1.352   1.113  1.00  0.00     0.093 C 
BRANCH  30  31
ATOM     31  C   UNL     1       3.834   1.859   2.238  1.00  0.00     0.061 A 
ATOM     32  C   UNL     1       3.732   3.082   2.866  1.00  0.00     0.107 A 
ATOM     33  N   UNL     1       4.897   1.148   2.757  1.00  0.00    -0.242 NA
ATOM     34  N   UNL     1       4.764   3.121   3.761  1.00  0.00    -0.351 N 
ATOM     35  C   UNL     1       5.445   1.942   3.649  1.00  0.00     0.196 A 
ATOM     36  H   UNL     1       5.005   3.891   4.367  1.00  0.00     0.167 HD
ENDBRANCH  30  31
ENDBRANCH   8  30
ENDBRANCH   6   8
ENDBRANCH   1   6
BRANCH   5  37
ATOM     37  C   UNL     1       0.222   1.744  -0.810  1.00  0.00     0.243 C 
ATOM     38  O   UNL     1       0.407   2.819  -0.236  1.00  0.00    -0.273 OA
ATOM     39  N   UNL     1      -0.999   1.120  -0.823  1.00  0.00    -0.343 N 
ATOM     40  H   UNL     1      -1.009   0.127  -1.048  1.00  0.00     0.164 HD
BRANCH  39  41
ATOM     41  C   UNL     1      -2.155   1.569  -0.054  1.00  0.00     0.171 C 
BRANCH  41  42
ATOM     42  C   UNL     1      -2.764   2.885  -0.564  1.00  0.00     0.038 C 
BRANCH  42  43
ATOM     43  C   UNL     1      -3.509   2.850  -1.914  1.00  0.00    -0.015 C 
ATOM     44  C   UNL     1      -4.125   4.225  -2.187  1.00  0.00     0.007 C 
ATOM     45  C   UNL     1      -2.625   2.450  -3.092  1.00  0.00     0.007 C 
ENDBRANCH  42  43
ENDBRANCH  41  42
BRANCH  41  46
ATOM     46  C   UNL     1      -3.147   0.380  -0.012  1.00  0.00     0.243 C 
ATOM     47  O   UNL     1      -2.894  -0.690  -0.573  1.00  0.00    -0.273 OA
ATOM     48  N   UNL     1      -4.283   0.565   0.747  1.00  0.00    -0.343 N 
ATOM     49  H   UNL     1      -4.612   1.520   0.835  1.00  0.00     0.164 HD
BRANCH  48  50
ATOM     50  C   UNL     1      -5.318  -0.465   0.764  1.00  0.00     0.171 C 
BRANCH  50  51
ATOM     51  C   UNL     1      -6.014  -0.568   2.132  1.00  0.00     0.037 C 
BRANCH  51  52
ATOM     52  C   UNL     1      -6.553   0.730   2.748  1.00  0.00     0.024 C 
BRANCH  52  53
ATOM     53  C   UNL     1      -7.767   1.312   2.028  1.00  0.00     0.116 C 
BRANCH  53  54
ATOM     54  N   UNL     1      -8.304   2.447   2.769  1.00  0.00    -0.357 N 
ATOM     55  C   UNL     1      -9.131   2.263   3.826  1.00  0.00     0.185 C 
ATOM     56  N   UNL     1      -9.427   1.134   4.353  1.00  0.00    -0.270 NA
ATOM     57  N   UNL     1      -9.606   3.440   4.277  1.00  0.00    -0.370 N 
ATOM     58  H   UNL     1      -8.647   3.171   2.151  1.00  0.00     0.163 HD
ATOM     59  H   UNL     1     -10.082   1.274   5.122  1.00  0.00     0.191 HD
ATOM     60  H   UNL     1      -8.918   4.182   4.207  1.00  0.00     0.159 HD
ATOM     61  H   UNL     1      -9.988   3.400   5.212  1.00  0.00     0.159 HD
ENDBRANCH  53  54
ENDBRANCH  52  53
ENDBRANCH  51  52
ENDBRANCH  50  51
BRANCH  50  62
ATOM     62  C   UNL     1      -6.300  -0.258  -0.410  1.00  0.00     0.243 C 
ATOM     63  O   UNL     1      -6.364   0.793  -1.046  1.00  0.00    -0.273 OA
ATOM     64  N   UNL     1      -7.122  -1.337  -0.663  1.00  0.00    -0.341 N 
ATOM     65  H   UNL     1      -6.798  -2.237  -0.330  1.00  0.00     0.164 HD
BRANCH  64  66
ATOM     66  C   UNL     1      -7.981  -1.338  -1.848  1.00  0.00     0.192 C 
BRANCH  66  67
ATOM     67  C   UNL     1      -8.489  -2.757  -2.170  1.00  0.00     0.040 C 
BRANCH  67  68
ATOM     68  C   UNL     1      -9.601  -3.331  -1.261  1.00  0.00    -0.015 C 
ATOM     69  C   UNL     1     -10.027  -4.704  -1.796  1.00  0.00     0.007 C 
ATOM     70  C   UNL     1      -9.194  -3.463   0.206  1.00  0.00     0.007 C 
ENDBRANCH  67  68
ENDBRANCH  66  67
BRANCH  66  71
ATOM     71  C   UNL     1      -9.170  -0.363  -1.798  1.00  0.00     0.326 C 
ATOM     72  O   UNL     1      -9.915  -0.109  -2.733  1.00  0.00    -0.250 OA
BRANCH  71  73
ATOM     73  O   UNL     1      -9.413   0.168  -0.585  1.00  0.00    -0.480 OA
ATOM     74  H   UNL     1     -10.199   0.736  -0.726  1.00  0.00     0.296 HD
ENDBRANCH  71  73
ENDBRANCH  66  71
ENDBRANCH  64  66
ENDBRANCH  50  62
ENDBRANCH  48  50
ENDBRANCH  41  46
ENDBRANCH  39  41
ENDBRANCH   5  37
TORSDOF 29
