REMARK  Name = /mnt/hpc/home/25menglei/25wenshaohua/MD/yzy/docking/dc/peptides/pdb/llhplrc.pdb
REMARK  33 active torsions:
REMARK  status: ('A' for Active; 'I' for Inactive)
REMARK    1  A    between atoms: N_1  and  CA_2
REMARK    2  A    between atoms: CA_2  and  C_3
REMARK    3  A    between atoms: CA_2  and  CB_5
REMARK    4  A    between atoms: CB_5  and  CG_6
REMARK    5  A    between atoms: CG_6  and  CD2_7
REMARK    6  A    between atoms: CG_6  and  CD1_8
REMARK    7  A    between atoms: N_9  and  CA_10
REMARK    8  A    between atoms: CA_10  and  C_11
REMARK    9  A    between atoms: CA_10  and  CB_13
REMARK   10  A    between atoms: CB_13  and  CG_14
REMARK   11  A    between atoms: CG_14  and  CD2_15
REMARK   12  A    between atoms: CG_14  and  CD1_16
REMARK   13  A    between atoms: N_17  and  CA_18
REMARK   14  A    between atoms: CA_18  and  C_19
REMARK   15  A    between atoms: CA_18  and  CB_21
REMARK   16  A    between atoms: CB_21  and  CG_22
REMARK   17  A    between atoms: CA_28  and  C_29
REMARK   18  A    between atoms: N_34  and  CA_35
REMARK   19  A    between atoms: CA_35  and  C_36
REMARK   20  A    between atoms: CA_35  and  CB_38
REMARK   21  A    between atoms: CB_38  and  CG_39
REMARK   22  A    between atoms: CG_39  and  CD1_40
REMARK   23  A    between atoms: CG_39  and  CD2_41
REMARK   24  A    between atoms: N_42  and  CA_43
REMARK   25  A    between atoms: CA_43  and  C_44
REMARK   26  A    between atoms: CA_43  and  CB_46
REMARK   27  A    between atoms: CB_46  and  CG_47
REMARK   28  A    between atoms: CG_47  and  CD_48
REMARK   29  A    between atoms: CD_48  and  NE_49
REMARK   30  A    between atoms: N_53  and  CA_54
REMARK   31  A    between atoms: CA_54  and  C_55
REMARK   32  A    between atoms: CA_54  and  CB_57
REMARK   33  A    between atoms: CB_57  and  SG_58
REMARK                            x       y       z     vdW  Elec       q    Type
REMARK                         _______ _______ _______ _____ _____    ______ ____
ROOT
ATOM      1  C   HIS A   3       1.710   0.698   1.165  0.00  0.00    +0.173 C 
ATOM      2  O   HIS A   3       0.597   1.159   0.905  0.00  0.00    -0.374 OA
ATOM      3  N   PRO A   4       2.646   0.486   0.244  0.00  0.00    -0.296 N 
ATOM      4  CA  PRO A   4       2.373   0.758  -1.166  0.00  0.00    +0.217 C 
ATOM      5  CB  PRO A   4       3.755   0.654  -1.806  0.00  0.00    +0.084 C 
ATOM      6  CG  PRO A   4       4.509  -0.280  -0.910  0.00  0.00    +0.049 C 
ATOM      7  CD  PRO A   4       3.989  -0.023   0.472  0.00  0.00    +0.147 C 
ENDROOT
BRANCH   4   8
ATOM      8  C   PRO A   4       1.412  -0.273  -1.761  0.00  0.00    +0.169 C 
ATOM      9  O   PRO A   4       1.479  -1.461  -1.436  0.00  0.00    -0.375 OA
ATOM     10  N   LEU A   5       0.515   0.186  -2.614  0.00  0.00    -0.292 N 
ATOM     11  H   LEU A   5       0.497   1.149  -2.820  0.00  0.00    +0.195 HD
BRANCH  10  12
ATOM     12  CA  LEU A   5      -0.451  -0.696  -3.260  0.00  0.00    +0.213 C 
BRANCH  12  13
ATOM     13  C   LEU A   5       0.248  -1.758  -4.101  0.00  0.00    +0.168 C 
ATOM     14  O   LEU A   5       1.201  -1.464  -4.812  0.00  0.00    -0.375 OA
ATOM     15  N   ARG A   6      -0.229  -2.974  -4.017  0.00  0.00    -0.292 N 
ATOM     16  H   ARG A   6      -0.996  -3.147  -3.424  0.00  0.00    +0.195 HD
BRANCH  15  17
ATOM     17  CA  ARG A   6       0.346  -4.089  -4.782  0.00  0.00    +0.214 C 
BRANCH  17  18
ATOM     18  C   ARG A   6      -0.388  -4.275  -6.107  0.00  0.00    +0.167 C 
ATOM     19  O   ARG A   6      -1.603  -4.442  -6.129  0.00  0.00    -0.376 OA
ATOM     20  N   CYS A   7       0.388  -4.246  -7.175  0.00  0.00    -0.303 N 
ATOM     21  H   CYS A   7       1.356  -4.099  -7.072  0.00  0.00    +0.193 HD
BRANCH  20  22
ATOM     22  CA  CYS A   7      -0.178  -4.430  -8.508  0.00  0.00    +0.164 C 
BRANCH  22  23
ATOM     23  C   CYS A   7      -0.385  -5.925  -8.804  0.00  0.00    +0.049 C 
ATOM     24  OXT CYS A   7      -1.278  -6.532  -8.212  0.00  0.00    -0.561 OA
ATOM     25  O   CYS A   7       0.347  -6.515  -9.600  0.00  0.00    -0.561 OA
ENDBRANCH  22  23
BRANCH  22  26
ATOM     26  CB  CYS A   7       0.724  -3.782  -9.563  0.00  0.00    +0.139 C 
BRANCH  26  27
ATOM     27  SG  CYS A   7       0.948  -2.003  -9.337  0.00  0.00    -0.222 S 
ATOM     28  H   CYS A   7       1.557  -1.771  -8.143  0.00  0.00    +0.129 HD
ENDBRANCH  26  27
ENDBRANCH  22  26
ENDBRANCH  20  22
ENDBRANCH  17  18
BRANCH  17  29
ATOM     29  CB  ARG A   6       0.264  -5.378  -3.961  0.00  0.00    +0.089 C 
BRANCH  29  30
ATOM     30  CG  ARG A   6       1.380  -5.472  -2.940  0.00  0.00    +0.073 C 
BRANCH  30  31
ATOM     31  CD  ARG A   6       1.324  -6.799  -2.196  0.00  0.00    +0.228 C 
BRANCH  31  32
ATOM     32  NE  ARG A   6       2.510  -7.024  -1.378  0.00  0.00    -0.331 N 
ATOM     33  CZ  ARG A   6       2.696  -8.085  -0.603  0.00  0.00    +0.115 C 
ATOM     34  NH1 ARG A   6       1.767  -9.026  -0.525  0.00  0.00    -0.359 NA
ATOM     35  NH2 ARG A   6       3.806  -8.211   0.100  0.00  0.00    -0.317 N 
ATOM     36  H   ARG A   6       3.220  -6.343  -1.402  0.00  0.00    +0.298 HD
ATOM     37  H   ARG A   6       0.936  -8.941  -1.045  0.00  0.00    +0.232 HD
ATOM     38  H   ARG A   6       1.908  -9.810   0.053  0.00  0.00    +0.232 HD
ATOM     39  H   ARG A   6       2.446  -8.786   0.146  0.00  0.00    +0.232 HD
ATOM     40  H   ARG A   6       4.503  -7.517   0.049  0.00  0.00    +0.294 HD
ATOM     41  H   ARG A   6       3.937  -8.999   0.675  0.00  0.00    +0.294 HD
ENDBRANCH  31  32
ENDBRANCH  30  31
ENDBRANCH  29  30
ENDBRANCH  17  29
ENDBRANCH  15  17
ENDBRANCH  12  13
BRANCH  12  42
ATOM     42  CB  LEU A   5      -1.396   0.133  -4.117  0.00  0.00    +0.079 C 
BRANCH  42  43
ATOM     43  CG  LEU A   5      -2.294   1.067  -3.300  0.00  0.00    -0.016 C 
ATOM     44  CD1 LEU A   5      -2.933   2.095  -4.209  0.00  0.00    +0.014 C 
ATOM     45  CD2 LEU A   5      -3.365   0.258  -2.576  0.00  0.00    +0.014 C 
ENDBRANCH  42  43
ENDBRANCH  12  42
ENDBRANCH  10  12
ENDBRANCH   4   8
BRANCH   1  46
ATOM     46  CA  HIS A   3       2.085   0.359   2.607  0.00  0.00    +0.230 C 
BRANCH  46  49
ATOM     47  C   LEU A   2       2.564   2.339   3.917  0.00  0.00    +0.169 C 
ATOM     48  O   LEU A   2       3.750   2.336   3.576  0.00  0.00    -0.375 OA
ATOM     49  N   HIS A   3       1.697   1.438   3.520  0.00  0.00    -0.289 N 
ATOM     50  H   HIS A   3       0.768   1.488   3.841  0.00  0.00    +0.196 HD
BRANCH  47  51
ATOM     51  CA  LEU A   2       2.028   3.416   4.868  0.00  0.00    +0.215 C 
BRANCH  51  54
ATOM     52  C   LEU A   1       1.209   2.738   7.070  0.00  0.00    +0.158 C 
ATOM     53  O   LEU A   1       0.033   2.837   6.713  0.00  0.00    -0.370 OA
ATOM     54  N   LEU A   2       2.226   3.003   6.254  0.00  0.00    -0.290 N 
ATOM     55  H   LEU A   2       3.145   2.917   6.597  0.00  0.00    +0.197 HD
BRANCH  52  56
ATOM     56  CA  LEU A   1       1.563   2.317   8.497  0.00  0.00    +0.189 C 
BRANCH  56  57
ATOM     57  N   LEU A   1       2.037   3.476   9.278  0.00  0.00    +0.361 NA
ATOM     58  H   LEU A   1       2.852   3.884   8.820  0.00  0.00    +0.133 HD
ATOM     59  H   LEU A   1       2.292   3.172  10.217  0.00  0.00    +0.133 HD
ATOM     60  H   LEU A   1       1.295   4.173   9.336  0.00  0.00    +0.133 HD
ATOM     61  H   LEU A   1       1.922   4.179  10.008  0.00  0.00    +0.133 HD
ENDBRANCH  56  57
BRANCH  56  62
ATOM     62  CB  LEU A   1       0.344   1.708   9.184  0.00  0.00    +0.078 C 
BRANCH  62  63
ATOM     63  CG  LEU A   1       0.647   1.034  10.525  0.00  0.00    -0.014 C 
ATOM     64  CD2 LEU A   1      -0.651   0.732  11.258  0.00  0.00    +0.016 C 
ATOM     65  CD1 LEU A   1       1.444  -0.253  10.292  0.00  0.00    +0.016 C 
ENDBRANCH  62  63
ENDBRANCH  56  62
ENDBRANCH  52  56
ENDBRANCH  51  54
BRANCH  51  66
ATOM     66  CB  LEU A   2       2.717   4.756   4.625  0.00  0.00    +0.079 C 
BRANCH  66  67
ATOM     67  CG  LEU A   2       2.106   5.948   5.392  0.00  0.00    -0.016 C 
ATOM     68  CD2 LEU A   2       3.076   7.119   5.407  0.00  0.00    +0.014 C 
ATOM     69  CD1 LEU A   2       0.781   6.356   4.763  0.00  0.00    +0.014 C 
ENDBRANCH  66  67
ENDBRANCH  51  66
ENDBRANCH  47  51
ENDBRANCH  46  49
BRANCH  46  70
ATOM     70  CB  HIS A   3       1.408  -0.950   3.034  0.00  0.00    +0.168 C 
BRANCH  70  71
ATOM     71  CG  HIS A   3       2.037  -1.559   4.256  0.00  0.00    -0.008 A 
ATOM     72  ND1 HIS A   3       1.603  -1.283   5.544  0.00  0.00    -0.334 N 
ATOM     73  CD2 HIS A   3       3.054  -2.451   4.394  0.00  0.00    +0.152 A 
ATOM     74  CE1 HIS A   3       2.356  -1.977   6.400  0.00  0.00    +0.182 A 
ATOM     75  NE2 HIS A   3       3.227  -2.693   5.736  0.00  0.00    -0.280 NA
ATOM     76  H   HIS A   3       0.865  -0.678   5.786  0.00  0.00    +0.189 HD
ENDBRANCH  70  71
ENDBRANCH  46  70
ENDBRANCH   1  46
TORSDOF 27
