REMARK  Name = /mnt/hpc/home/25menglei/25wenshaohua/MD/yzy/docking/dc/peptides/pdb/wllvhlkk.pdb
REMARK  36 active torsions:
REMARK  status: ('A' for Active; 'I' for Inactive)
REMARK    1  A    between atoms: N_1  and  C_2
REMARK    2  A    between atoms: C_2  and  C_3
REMARK    3  A    between atoms: C_2  and  C_5
REMARK    4  A    between atoms: C_5  and  C_6
REMARK    5  A    between atoms: CA_16  and  CB_19
REMARK    6  A    between atoms: CB_19  and  CG_20
REMARK    7  A    between atoms: CG_20  and  CD1_21
REMARK    8  A    between atoms: CG_20  and  CD2_22
REMARK    9  A    between atoms: CA_24  and  CB_27
REMARK   10  A    between atoms: CB_27  and  CG_28
REMARK   11  A    between atoms: CG_28  and  CD2_29
REMARK   12  A    between atoms: CG_28  and  CD1_30
REMARK   13  A    between atoms: CA_32  and  CB_35
REMARK   14  A    between atoms: CB_35  and  CG1_36
REMARK   15  A    between atoms: CB_35  and  CG2_37
REMARK   16  A    between atoms: C_39  and  C_40
REMARK   17  A    between atoms: N_48  and  CA_49
REMARK   18  A    between atoms: CA_49  and  C_50
REMARK   19  A    between atoms: CA_49  and  CB_52
REMARK   20  A    between atoms: CB_52  and  CG_53
REMARK   21  A    between atoms: CG_53  and  CD1_54
REMARK   22  A    between atoms: CG_53  and  CD2_55
REMARK   23  A    between atoms: N_56  and  CA_57
REMARK   24  A    between atoms: CA_57  and  C_58
REMARK   25  A    between atoms: CA_57  and  CB_60
REMARK   26  A    between atoms: CB_60  and  CG_61
REMARK   27  A    between atoms: CG_61  and  CD_62
REMARK   28  A    between atoms: CD_62  and  CE_63
REMARK   29  A    between atoms: CE_63  and  NZ_64
REMARK   30  A    between atoms: N_65  and  CA_66
REMARK   31  A    between atoms: CA_66  and  C_67
REMARK   32  A    between atoms: CA_66  and  CB_69
REMARK   33  A    between atoms: CB_69  and  CG_70
REMARK   34  A    between atoms: CG_70  and  CD_71
REMARK   35  A    between atoms: CD_71  and  CE_72
REMARK   36  A    between atoms: CE_72  and  NZ_73
REMARK                            x       y       z     vdW  Elec       q    Type
REMARK                         _______ _______ _______ _____ _____    ______ ____
ROOT
ATOM      1  C   UNK     1      -4.197   0.559  -2.031  0.00  0.00    +0.249 C 
ATOM      2  O   UNK     1      -4.589   0.094  -0.962  0.00  0.00    -0.365 OA
ATOM      3  N   LEU A   1      -3.324  -0.042  -2.783  0.00  0.00    +0.456 N 
ATOM      4  CA  LEU A   1      -2.735  -1.316  -2.382  0.00  0.00    +0.204 C 
ATOM      5  C   LEU A   1      -1.206  -1.273  -2.394  0.00  0.00    +0.163 C 
ATOM      6  O   LEU A   1      -0.551  -1.861  -1.539  0.00  0.00    -0.369 OA
ATOM      7  N   LEU A   2      -0.634  -0.581  -3.371  0.00  0.00    -0.290 N 
ATOM      8  CA  LEU A   2       0.822  -0.487  -3.447  0.00  0.00    +0.215 C 
ATOM      9  C   LEU A   2       1.368   0.469  -2.388  0.00  0.00    +0.169 C 
ATOM     10  O   LEU A   2       2.373   0.178  -1.740  0.00  0.00    -0.375 OA
ATOM     11  N   VAL A   3       0.706   1.567  -2.224  0.00  0.00    -0.292 N 
ATOM     12  CA  VAL A   3       1.150   2.564  -1.263  0.00  0.00    +0.215 C 
ATOM     13  C   VAL A   3       0.713   2.220   0.161  0.00  0.00    +0.169 C 
ATOM     14  O   VAL A   3       1.088   2.895   1.110  0.00  0.00    -0.375 OA
ATOM     15  N   UNK A   4      -0.061   1.203   0.313  0.00  0.00    -0.290 N 
ATOM     16  C   UNK A   4      -0.559   0.814   1.626  0.00  0.00    +0.223 C 
ATOM     17  C   UNK A   4      -1.448  -0.418   1.495  0.00  0.00    +0.123 C 
ATOM     18  C   UNK A   4      -2.855  -0.066   1.148  0.00  0.00    +0.092 C 
ATOM     19  N   UNK A   4      -3.900  -0.960   1.224  0.00  0.00    +0.443 N 
ATOM     20  C   UNK A   4      -3.395   1.104   0.708  0.00  0.00    +0.206 C 
ATOM     21  C   UNK A   4      -5.005  -0.361   0.860  0.00  0.00    +0.275 C 
ATOM     22  N   UNK A   4      -4.732   0.896   0.540  0.00  0.00    -0.240 NA
ATOM     23  H   LEU A   1      -3.778  -0.203  -3.682  0.00  0.00    +0.165 HD
ATOM     24  H   LEU A   1      -2.526   0.593  -2.752  0.00  0.00    +0.165 HD
ATOM     25  H   LEU A   2      -1.192  -0.130  -4.046  0.00  0.00    +0.197 HD
ATOM     26  H   VAL A   3      -0.107   1.730  -2.755  0.00  0.00    +0.195 HD
ATOM     27  H   UNK A   4      -0.323   0.676  -0.476  0.00  0.00    +0.196 HD
ATOM     28  H   UNK A   4      -3.720  -1.750   0.604  0.00  0.00    +0.147 HD
ATOM     29  H   UNK A   4      -3.993  -1.299   2.182  0.00  0.00    +0.147 HD
ENDROOT
BRANCH  16  30
ATOM     30  C   UNK A   4       0.599   0.538   2.578  0.00  0.00    +0.171 C 
ATOM     31  O   UNK A   4       0.500   0.765   3.773  0.00  0.00    -0.375 OA
ATOM     32  N   LEU A   5       1.697   0.062   2.051  0.00  0.00    -0.292 N 
ATOM     33  H   LEU A   5       1.731  -0.104   1.081  0.00  0.00    +0.195 HD
BRANCH  32  34
ATOM     34  CA  LEU A   5       2.874  -0.230   2.864  0.00  0.00    +0.213 C 
BRANCH  34  35
ATOM     35  C   LEU A   5       3.626   1.056   3.183  0.00  0.00    +0.168 C 
ATOM     36  O   LEU A   5       4.307   1.149   4.195  0.00  0.00    -0.375 OA
ATOM     37  N   LYS A   6       3.524   2.061   2.329  0.00  0.00    -0.292 N 
ATOM     38  H   LYS A   6       2.955   1.947   1.534  0.00  0.00    +0.195 HD
BRANCH  37  39
ATOM     39  CA  LYS A   6       4.216   3.328   2.514  0.00  0.00    +0.213 C 
BRANCH  39  40
ATOM     40  C   LYS A   6       3.432   4.245   3.447  0.00  0.00    +0.166 C 
ATOM     41  O   LYS A   6       3.911   5.305   3.824  0.00  0.00    -0.376 OA
ATOM     42  N   LYS A   7       2.274   3.830   3.798  0.00  0.00    -0.306 N 
ATOM     43  H   LYS A   7       1.934   2.973   3.453  0.00  0.00    +0.192 HD
BRANCH  42  44
ATOM     44  CA  LYS A   7       1.461   4.619   4.703  0.00  0.00    +0.149 C 
BRANCH  44  45
ATOM     45  C   LYS A   7       1.989   4.527   6.155  0.00  0.00    +0.046 C 
ATOM     46  O   LYS A   7       3.209   4.394   6.344  0.00  0.00    -0.561 OA
ATOM     47  OXT LYS A   7       1.236   4.559   7.100  0.00  0.00    -0.561 OA
ENDBRANCH  44  45
BRANCH  44  48
ATOM     48  CB  LYS A   7       0.002   4.162   4.601  0.00  0.00    +0.061 C 
BRANCH  48  49
ATOM     49  CG  LYS A   7      -0.761   4.812   3.480  0.00  0.00    +0.022 C 
BRANCH  49  50
ATOM     50  CD  LYS A   7      -2.175   4.307   3.328  0.00  0.00    +0.033 C 
BRANCH  50  51
ATOM     51  CE  LYS A   7      -2.984   4.627   4.572  0.00  0.00    +0.103 C 
BRANCH  51  52
ATOM     52  NZ  LYS A   7      -2.983   6.079   4.887  0.00  0.00    +0.353 NA
ATOM     53  H   LYS A   7      -2.027   6.387   5.066  0.00  0.00    +0.125 HD
ATOM     54  H   LYS A   7      -3.555   6.248   5.714  0.00  0.00    +0.125 HD
ATOM     55  H   LYS A   7      -3.365   6.599   4.097  0.00  0.00    +0.125 HD
ATOM     56  H   LYS A   7      -2.333   6.621   5.456  0.00  0.00    +0.125 HD
ENDBRANCH  51  52
ENDBRANCH  50  51
ENDBRANCH  49  50
ENDBRANCH  48  49
ENDBRANCH  44  48
ENDBRANCH  42  44
ENDBRANCH  39  40
BRANCH  39  57
ATOM     57  CB  LYS A   6       4.433   4.018   1.161  0.00  0.00    +0.078 C 
BRANCH  57  58
ATOM     58  CG  LYS A   6       5.648   3.446   0.415  0.00  0.00    +0.025 C 
BRANCH  58  59
ATOM     59  CD  LYS A   6       5.448   1.988   0.043  0.00  0.00    +0.033 C 
BRANCH  59  60
ATOM     60  CE  LYS A   6       6.664   1.443  -0.714  0.00  0.00    +0.103 C 
BRANCH  60  61
ATOM     61  NZ  LYS A   6       7.693   0.958   0.220  0.00  0.00    +0.353 NA
ATOM     62  H   LYS A   6       8.006   1.728   0.811  0.00  0.00    +0.125 HD
ATOM     63  H   LYS A   6       8.485   0.590  -0.307  0.00  0.00    +0.125 HD
ATOM     64  H   LYS A   6       7.301   0.219   0.804  0.00  0.00    +0.125 HD
ATOM     65  H   LYS A   6       8.657   1.171   0.476  0.00  0.00    +0.125 HD
ENDBRANCH  60  61
ENDBRANCH  59  60
ENDBRANCH  58  59
ENDBRANCH  57  58
ENDBRANCH  39  57
ENDBRANCH  37  39
ENDBRANCH  34  35
BRANCH  34  66
ATOM     66  CB  LEU A   5       3.793  -1.184   2.100  0.00  0.00    +0.079 C 
BRANCH  66  67
ATOM     67  CG  LEU A   5       3.083  -2.431   1.582  0.00  0.00    -0.016 C 
ATOM     68  CD1 LEU A   5       3.987  -3.206   0.632  0.00  0.00    +0.014 C 
ATOM     69  CD2 LEU A   5       2.676  -3.311   2.759  0.00  0.00    +0.014 C 
ENDBRANCH  66  67
ENDBRANCH  34  66
ENDBRANCH  32  34
ENDBRANCH  16  30
BRANCH  12  70
ATOM     70  CB  VAL A   3       0.605   3.932  -1.674  0.00  0.00    +0.032 C 
ATOM     71  CG1 VAL A   3      -0.858   4.039  -1.323  0.00  0.00    +0.028 C 
ATOM     72  CG2 VAL A   3       1.427   5.016  -1.021  0.00  0.00    +0.028 C 
ENDBRANCH  12  70
BRANCH   1  73
ATOM     73  C   UNK     1      -4.783   1.866  -2.576  0.00  0.00    +0.121 C 
BRANCH  73  74
ATOM     74  N   UNK     1      -5.663   2.477  -1.580  0.00  0.00    +0.355 NA
ATOM     75  H   UNK     1      -6.047   3.345  -1.953  0.00  0.00    +0.132 HD
ATOM     76  H   UNK     1      -5.131   2.677  -0.733  0.00  0.00    +0.132 HD
ATOM     77  H   UNK     1      -6.425   1.835  -1.360  0.00  0.00    +0.132 HD
ATOM     78  H   UNK     1      -5.836   1.683  -2.196  0.00  0.00    +0.132 HD
ENDBRANCH  73  74
BRANCH  73  79
ATOM     79  C   UNK     1      -3.667   2.824  -2.942  0.00  0.00    +0.087 C 
BRANCH  79  80
ATOM     80  C   UNK     1      -3.078   2.569  -4.298  0.00  0.00    +0.063 C 
ATOM     81  C   UNK     1      -3.227   1.483  -5.093  0.00  0.00    +0.135 C 
ATOM     82  C   UNK     1      -2.198   3.459  -5.027  0.00  0.00    -0.045 A 
ATOM     83  N   UNK     1      -2.507   1.603  -6.260  0.00  0.00    -0.374 N 
ATOM     84  C   UNK     1      -1.863   2.826  -6.245  0.00  0.00    -0.027 A 
ATOM     85  C   UNK     1      -1.673   4.724  -4.755  0.00  0.00    +0.018 A 
ATOM     86  C   UNK     1      -1.023   3.418  -7.181  0.00  0.00    +0.039 A 
ATOM     87  C   UNK     1      -0.842   5.312  -5.677  0.00  0.00    +0.005 A 
ATOM     88  C   UNK     1      -0.518   4.673  -6.881  0.00  0.00    +0.010 A 
ATOM     89  H   UNK     1      -2.459   0.934  -6.981  0.00  0.00    +0.166 HD
ENDBRANCH  79  80
ENDBRANCH  73  79
ENDBRANCH   1  73
BRANCH   4  90
ATOM     90  CB  LEU A   1      -3.248  -2.416  -3.322  0.00  0.00    +0.083 C 
BRANCH  90  91
ATOM     91  CG  LEU A   1      -3.215  -2.021  -4.812  0.00  0.00    -0.013 C 
ATOM     92  CD1 LEU A   1      -2.056  -2.702  -5.520  0.00  0.00    +0.016 C 
ATOM     93  CD2 LEU A   1      -4.529  -2.379  -5.480  0.00  0.00    +0.016 C 
ENDBRANCH  90  91
ENDBRANCH   4  90
BRANCH   8  94
ATOM     94  CB  LEU A   2       1.238  -0.016  -4.843  0.00  0.00    +0.079 C 
BRANCH  94  95
ATOM     95  CG  LEU A   2       0.751  -0.913  -5.998  0.00  0.00    -0.016 C 
ATOM     96  CD2 LEU A   2      -0.547  -0.377  -6.569  0.00  0.00    +0.014 C 
ATOM     97  CD1 LEU A   2       1.812  -0.996  -7.085  0.00  0.00    +0.014 C 
ENDBRANCH  94  95
ENDBRANCH   8  94
TORSDOF 28
