REMARK  Name = /mnt/hpc/home/25menglei/25wenshaohua/MD/yzy/docking/dc/peptides/pdb/ylsllqr.pdb
REMARK  38 active torsions:
REMARK  status: ('A' for Active; 'I' for Inactive)
REMARK    1  A    between atoms: N_1  and  CA_2
REMARK    2  A    between atoms: CA_2  and  C_3
REMARK    3  A    between atoms: CA_2  and  CB_5
REMARK    4  A    between atoms: CB_5  and  CG_6
REMARK    5  A    between atoms: CZ_11  and  OH_12
REMARK    6  A    between atoms: N_13  and  CA_14
REMARK    7  A    between atoms: CA_14  and  C_15
REMARK    8  A    between atoms: CA_14  and  CB_17
REMARK    9  A    between atoms: CB_17  and  CG_18
REMARK   10  A    between atoms: CG_18  and  CD2_19
REMARK   11  A    between atoms: CG_18  and  CD1_20
REMARK   12  A    between atoms: N_21  and  CA_22
REMARK   13  A    between atoms: CA_22  and  C_23
REMARK   14  A    between atoms: CA_22  and  CB_25
REMARK   15  A    between atoms: CB_25  and  OG_26
REMARK   16  A    between atoms: N_27  and  CA_28
REMARK   17  A    between atoms: CA_28  and  C_29
REMARK   18  A    between atoms: CA_28  and  CB_31
REMARK   19  A    between atoms: CB_31  and  CG_32
REMARK   20  A    between atoms: CG_32  and  CD1_33
REMARK   21  A    between atoms: CG_32  and  CD2_34
REMARK   22  A    between atoms: N_35  and  CA_36
REMARK   23  A    between atoms: CA_36  and  C_37
REMARK   24  A    between atoms: CA_36  and  CB_39
REMARK   25  A    between atoms: CB_39  and  CG_40
REMARK   26  A    between atoms: CG_40  and  CD2_41
REMARK   27  A    between atoms: CG_40  and  CD1_42
REMARK   28  A    between atoms: N_43  and  CA_44
REMARK   29  A    between atoms: CA_44  and  C_45
REMARK   30  A    between atoms: CA_44  and  CB_47
REMARK   31  A    between atoms: CB_47  and  CG_48
REMARK   32  A    between atoms: CG_48  and  CD_49
REMARK   33  A    between atoms: N_52  and  CA_53
REMARK   34  A    between atoms: CA_53  and  C_54
REMARK   35  A    between atoms: CA_53  and  CB_56
REMARK   36  A    between atoms: CB_56  and  CG_57
REMARK   37  A    between atoms: CG_57  and  CD_58
REMARK   38  A    between atoms: CD_58  and  NE_59
REMARK                            x       y       z     vdW  Elec       q    Type
REMARK                         _______ _______ _______ _____ _____    ______ ____
ROOT
ATOM      1  C   LEU A   4      -0.978  -0.130  -2.015  0.00  0.00    +0.168 C 
ATOM      2  O   LEU A   4      -1.457  -0.340  -3.127  0.00  0.00    -0.375 OA
ATOM      3  N   LEU A   5      -1.345  -0.797  -0.954  0.00  0.00    -0.292 N 
ATOM      4  H   LEU A   5      -0.888  -0.622  -0.100  0.00  0.00    +0.195 HD
ENDROOT
BRANCH   3   5
ATOM      5  CA  LEU A   5      -2.410  -1.793  -0.994  0.00  0.00    +0.213 C 
BRANCH   5   6
ATOM      6  C   LEU A   5      -3.714  -1.216  -0.432  0.00  0.00    +0.168 C 
ATOM      7  O   LEU A   5      -4.800  -1.706  -0.729  0.00  0.00    -0.375 OA
ATOM      8  N   GLN A   6      -3.595  -0.190   0.363  0.00  0.00    -0.292 N 
ATOM      9  H   GLN A   6      -2.689   0.118   0.594  0.00  0.00    +0.195 HD
BRANCH   8  10
ATOM     10  CA  GLN A   6      -4.729   0.524   0.926  0.00  0.00    +0.218 C 
BRANCH  10  11
ATOM     11  C   GLN A   6      -5.234   1.570  -0.049  0.00  0.00    +0.167 C 
ATOM     12  O   GLN A   6      -6.441   1.713  -0.235  0.00  0.00    -0.376 OA
ATOM     13  N   ARG A   7      -4.249   2.269  -0.708  0.00  0.00    -0.306 N 
ATOM     14  H   ARG A   7      -3.316   2.027  -0.509  0.00  0.00    +0.192 HD
BRANCH  13  15
ATOM     15  CA  ARG A   7      -4.468   3.342  -1.680  0.00  0.00    +0.151 C 
BRANCH  15  16
ATOM     16  C   ARG A   7      -5.463   4.371  -1.190  0.00  0.00    +0.046 C 
ATOM     17  OXT ARG A   7      -5.020   5.542  -0.953  0.00  0.00    -0.561 OA
ATOM     18  O   ARG A   7      -6.642   4.078  -1.033  0.00  0.00    -0.561 OA
ENDBRANCH  15  16
BRANCH  15  19
ATOM     19  CB  ARG A   7      -4.848   2.804  -3.063  0.00  0.00    +0.071 C 
BRANCH  19  20
ATOM     20  CG  ARG A   7      -6.143   2.027  -3.093  0.00  0.00    +0.070 C 
BRANCH  20  21
ATOM     21  CD  ARG A   7      -5.890   0.602  -3.463  0.00  0.00    +0.228 C 
BRANCH  21  22
ATOM     22  NE  ARG A   7      -7.142  -0.124  -3.594  0.00  0.00    -0.331 N 
ATOM     23  CZ  ARG A   7      -7.376  -1.299  -3.041  0.00  0.00    +0.115 C 
ATOM     24  NH2 ARG A   7      -6.457  -1.876  -2.284  0.00  0.00    -0.317 N 
ATOM     25  NH1 ARG A   7      -8.527  -1.903  -3.250  0.00  0.00    -0.359 NA
ATOM     26  H   ARG A   7      -7.860   0.286  -4.128  0.00  0.00    +0.298 HD
ATOM     27  H   ARG A   7      -5.596  -1.426  -2.126  0.00  0.00    +0.294 HD
ATOM     28  H   ARG A   7      -6.635  -2.755  -1.878  0.00  0.00    +0.294 HD
ATOM     29  H   ARG A   7      -9.212  -1.475  -3.813  0.00  0.00    +0.232 HD
ATOM     30  H   ARG A   7      -8.703  -2.782  -2.843  0.00  0.00    +0.232 HD
ATOM     31  H   ARG A   7      -7.928  -2.630  -2.963  0.00  0.00    +0.232 HD
ENDBRANCH  21  22
ENDBRANCH  20  21
ENDBRANCH  19  20
ENDBRANCH  15  19
ENDBRANCH  13  15
ENDBRANCH  10  11
BRANCH  10  32
ATOM     32  CB  GLN A   6      -4.310   1.210   2.253  0.00  0.00    +0.113 C 
BRANCH  32  33
ATOM     33  CG  GLN A   6      -4.827   0.506   3.496  0.00  0.00    +0.194 C 
BRANCH  33  34
ATOM     34  CD  GLN A   6      -6.302   0.755   3.736  0.00  0.00    +0.136 C 
ATOM     35  OE1 GLN A   6      -6.738   1.883   3.884  0.00  0.00    -0.387 OA
ATOM     36  NE2 GLN A   6      -7.085  -0.303   3.797  0.00  0.00    -0.326 N 
ATOM     37  H   GLN A   6      -6.706  -1.203   3.674  0.00  0.00    +0.178 HD
ATOM     38  H   GLN A   6      -8.049  -0.193   3.966  0.00  0.00    +0.178 HD
ENDBRANCH  33  34
ENDBRANCH  32  33
ENDBRANCH  10  32
ENDBRANCH   8  10
ENDBRANCH   5   6
BRANCH   5  39
ATOM     39  CB  LEU A   5      -1.964  -3.071  -0.263  0.00  0.00    +0.079 C 
BRANCH  39  40
ATOM     40  CG  LEU A   5      -1.655  -2.929   1.224  0.00  0.00    -0.016 C 
ATOM     41  CD2 LEU A   5      -2.872  -3.302   2.069  0.00  0.00    +0.014 C 
ATOM     42  CD1 LEU A   5      -0.496  -3.830   1.572  0.00  0.00    +0.014 C 
ENDBRANCH  39  40
ENDBRANCH   5  39
ENDBRANCH   3   5
BRANCH   1  43
ATOM     43  CA  LEU A   4       0.075   0.964  -1.821  0.00  0.00    +0.213 C 
BRANCH  43  46
ATOM     44  C   SER A   3      -0.770   2.067   0.180  0.00  0.00    +0.176 C 
ATOM     45  O   SER A   3      -1.835   2.349  -0.357  0.00  0.00    -0.373 OA
ATOM     46  N   LEU A   4       0.201   1.391  -0.442  0.00  0.00    -0.291 N 
ATOM     47  H   LEU A   4       1.026   1.177   0.051  0.00  0.00    +0.195 HD
BRANCH  44  48
ATOM     48  CA  SER A   3      -0.508   2.467   1.629  0.00  0.00    +0.247 C 
BRANCH  48  51
ATOM     49  C   LEU A   2      -0.089   0.218   2.518  0.00  0.00    +0.170 C 
ATOM     50  O   LEU A   2      -1.138  -0.211   2.067  0.00  0.00    -0.375 OA
ATOM     51  N   SER A   3       0.283   1.484   2.356  0.00  0.00    -0.285 N 
ATOM     52  H   SER A   3       1.139   1.772   2.748  0.00  0.00    +0.197 HD
BRANCH  49  53
ATOM     53  CA  LEU A   2       0.877  -0.700   3.286  0.00  0.00    +0.215 C 
BRANCH  53  56
ATOM     54  C   TYR A   1       3.006   0.071   2.427  0.00  0.00    +0.160 C 
ATOM     55  O   TYR A   1       2.657  -0.106   1.258  0.00  0.00    -0.369 OA
ATOM     56  N   LEU A   2       2.230  -0.168   3.431  0.00  0.00    -0.290 N 
ATOM     57  H   LEU A   2       2.566   0.017   4.338  0.00  0.00    +0.197 HD
BRANCH  54  58
ATOM     58  CA  TYR A   1       4.420   0.576   2.734  0.00  0.00    +0.198 C 
BRANCH  58  59
ATOM     59  N   TYR A   1       5.409  -0.313   2.106  0.00  0.00    +0.362 NA
ATOM     60  H   TYR A   1       6.349   0.025   2.312  0.00  0.00    +0.134 HD
ATOM     61  H   TYR A   1       5.265  -0.323   1.096  0.00  0.00    +0.134 HD
ATOM     62  H   TYR A   1       5.299  -1.258   2.474  0.00  0.00    +0.134 HD
ATOM     63  H   TYR A   1       4.851  -1.031   1.643  0.00  0.00    +0.134 HD
ENDBRANCH  58  59
BRANCH  58  64
ATOM     64  CB  TYR A   1       4.611   2.004   2.209  0.00  0.00    +0.129 C 
BRANCH  64  65
ATOM     65  CG  TYR A   1       4.387   3.068   3.253  0.00  0.00    -0.064 A 
ATOM     66  CD2 TYR A   1       5.112   3.065   4.444  0.00  0.00    +0.029 A 
ATOM     67  CD1 TYR A   1       3.481   4.095   3.032  0.00  0.00    +0.029 A 
ATOM     68  CE2 TYR A   1       4.927   4.056   5.411  0.00  0.00    +0.079 A 
ATOM     69  CE1 TYR A   1       3.300   5.098   4.000  0.00  0.00    +0.079 A 
ATOM     70  CZ  TYR A   1       4.012   5.073   5.180  0.00  0.00    +0.033 A 
BRANCH  70  71
ATOM     71  OH  TYR A   1       3.829   6.041   6.131  0.00  0.00    -0.565 OA
ATOM     72  H   TYR A   1       3.213   6.732   5.984  0.00  0.00    +0.334 HD
ENDBRANCH  70  71
ENDBRANCH  64  65
ENDBRANCH  58  64
ENDBRANCH  54  58
ENDBRANCH  53  56
BRANCH  53  73
ATOM     73  CB  LEU A   2       0.316  -1.139   4.667  0.00  0.00    +0.079 C 
BRANCH  73  74
ATOM     74  CG  LEU A   2      -0.119  -0.109   5.732  0.00  0.00    -0.016 C 
ATOM     75  CD2 LEU A   2       0.911   1.025   5.906  0.00  0.00    +0.014 C 
ATOM     76  CD1 LEU A   2      -1.488   0.451   5.435  0.00  0.00    +0.014 C 
ENDBRANCH  73  74
ENDBRANCH  53  73
ENDBRANCH  49  53
ENDBRANCH  48  51
BRANCH  48  77
ATOM     77  CB  SER A   3       0.192   3.824   1.687  0.00  0.00    +0.246 C 
BRANCH  77  78
ATOM     78  OG  SER A   3       0.173   4.329   3.018  0.00  0.00    -0.447 OA
ATOM     79  H   SER A   3      -0.746   4.437   3.310  0.00  0.00    +0.236 HD
ENDBRANCH  77  78
ENDBRANCH  48  77
ENDBRANCH  44  48
ENDBRANCH  43  46
BRANCH  43  80
ATOM     80  CB  LEU A   4       1.445   0.561  -2.364  0.00  0.00    +0.079 C 
BRANCH  80  81
ATOM     81  CG  LEU A   4       2.315  -0.205  -1.372  0.00  0.00    -0.016 C 
ATOM     82  CD1 LEU A   4       2.270  -1.686  -1.623  0.00  0.00    +0.014 C 
ATOM     83  CD2 LEU A   4       3.726   0.315  -1.448  0.00  0.00    +0.014 C 
ENDBRANCH  80  81
ENDBRANCH  43  80
ENDBRANCH   1  43
TORSDOF 32
