MODEL 1
REMARK VINA RESULT:    -9.288      0.000      0.000
REMARK INTER + INTRA:         -27.198
REMARK INTER:                 -23.947
REMARK INTRA:                  -3.250
REMARK UNBOUND:                -3.250
REMARK  Name = /mnt/hpc/home/25menglei/25wenshaohua/MD/yzy/docking/dc/peptides/pdb/alllhrc.pdb
REMARK  35 active torsions:
REMARK  status: ('A' for Active; 'I' for Inactive)
REMARK    1  A    between atoms: N_1  and  CA_2
REMARK    2  A    between atoms: CA_2  and  C_3
REMARK    3  A    between atoms: CA_2  and  CB_5
REMARK    4  A    between atoms: N_6  and  CA_7
REMARK    5  A    between atoms: CA_7  and  C_8
REMARK    6  A    between atoms: CA_7  and  CB_10
REMARK    7  A    between atoms: CB_10  and  CG_11
REMARK    8  A    between atoms: CG_11  and  CD2_12
REMARK    9  A    between atoms: CG_11  and  CD1_13
REMARK   10  A    between atoms: N_14  and  CA_15
REMARK   11  A    between atoms: CA_15  and  C_16
REMARK   12  A    between atoms: CA_15  and  CB_18
REMARK   13  A    between atoms: CB_18  and  CG_19
REMARK   14  A    between atoms: CG_19  and  CD1_20
REMARK   15  A    between atoms: CG_19  and  CD2_21
REMARK   16  A    between atoms: N_22  and  CA_23
REMARK   17  A    between atoms: CA_23  and  C_24
REMARK   18  A    between atoms: CA_23  and  CB_26
REMARK   19  A    between atoms: CB_26  and  CG_27
REMARK   20  A    between atoms: CG_27  and  CD2_28
REMARK   21  A    between atoms: CG_27  and  CD1_29
REMARK   22  A    between atoms: N_30  and  CA_31
REMARK   23  A    between atoms: CA_31  and  C_32
REMARK   24  A    between atoms: CA_31  and  CB_34
REMARK   25  A    between atoms: CB_34  and  CG_35
REMARK   26  A    between atoms: N_40  and  CA_41
REMARK   27  A    between atoms: CA_41  and  C_42
REMARK   28  A    between atoms: CA_41  and  CB_44
REMARK   29  A    between atoms: CB_44  and  CG_45
REMARK   30  A    between atoms: CG_45  and  CD_46
REMARK   31  A    between atoms: CD_46  and  NE_47
REMARK   32  A    between atoms: N_51  and  CA_52
REMARK   33  A    between atoms: CA_52  and  C_53
REMARK   34  A    between atoms: CA_52  and  CB_55
REMARK   35  A    between atoms: CB_55  and  SG_56
REMARK                            x       y       z     vdW  Elec       q    Type
REMARK                         _______ _______ _______ _____ _____    ______ ____
ROOT
ATOM      1  C   LEU A   4     -14.548 -43.624  26.756  0.00  0.00    +0.169 C 
ATOM      2  O   LEU A   4     -14.613 -44.642  27.441  0.00  0.00    -0.375 OA
ATOM      3  N   HIS A   5     -13.545 -42.794  26.805  0.00  0.00    -0.290 N 
ATOM      4  H   HIS A   5     -13.577 -41.965  26.275  0.00  0.00    +0.196 HD
ENDROOT
BRANCH   3   5
ATOM      5  CA  HIS A   5     -12.376 -43.070  27.629  0.00  0.00    +0.229 C 
BRANCH   5   6
ATOM      6  C   HIS A   5     -12.583 -42.659  29.075  0.00  0.00    +0.171 C 
ATOM      7  O   HIS A   5     -12.159 -41.594  29.496  0.00  0.00    -0.375 OA
ATOM      8  N   ARG A   6     -13.218 -43.493  29.843  0.00  0.00    -0.292 N 
ATOM      9  H   ARG A   6     -13.528 -44.349  29.468  0.00  0.00    +0.195 HD
BRANCH   8  10
ATOM     10  CA  ARG A   6     -13.482 -43.199  31.239  0.00  0.00    +0.214 C 
BRANCH  10  11
ATOM     11  C   ARG A   6     -12.350 -43.660  32.139  0.00  0.00    +0.167 C 
ATOM     12  O   ARG A   6     -12.227 -44.850  32.429  0.00  0.00    -0.376 OA
ATOM     13  N   CYS A   7     -11.524 -42.722  32.560  0.00  0.00    -0.303 N 
ATOM     14  H   CYS A   7     -11.685 -41.789  32.289  0.00  0.00    +0.193 HD
BRANCH  13  15
ATOM     15  CA  CYS A   7     -10.385 -43.025  33.411  0.00  0.00    +0.164 C 
BRANCH  15  16
ATOM     16  C   CYS A   7     -10.244 -41.987  34.505  0.00  0.00    +0.049 C 
ATOM     17  O   CYS A   7     -10.968 -40.992  34.478  0.00  0.00    -0.561 OA
ATOM     18  OXT CYS A   7      -9.412 -42.153  35.376  0.00  0.00    -0.561 OA
ENDBRANCH  15  16
BRANCH  15  19
ATOM     19  CB  CYS A   7      -9.092 -43.077  32.593  0.00  0.00    +0.139 C 
BRANCH  19  20
ATOM     20  SG  CYS A   7      -8.603 -44.755  32.159  0.00  0.00    -0.222 S 
ATOM     21  H   CYS A   7      -8.780 -44.947  30.824  0.00  0.00    +0.129 HD
ENDBRANCH  19  20
ENDBRANCH  15  19
ENDBRANCH  13  15
ENDBRANCH  10  11
BRANCH  10  22
ATOM     22  CB  ARG A   6     -14.783 -43.851  31.691  0.00  0.00    +0.089 C 
BRANCH  22  23
ATOM     23  CG  ARG A   6     -15.854 -42.843  32.043  0.00  0.00    +0.073 C 
BRANCH  23  24
ATOM     24  CD  ARG A   6     -15.240 -41.504  32.400  0.00  0.00    +0.228 C 
BRANCH  24  25
ATOM     25  NE  ARG A   6     -15.732 -41.008  33.666  0.00  0.00    -0.331 N 
ATOM     26  CZ  ARG A   6     -15.045 -41.056  34.809  0.00  0.00    +0.115 C 
ATOM     27  NH2 ARG A   6     -13.839 -41.586  34.821  0.00  0.00    -0.317 N 
ATOM     28  NH1 ARG A   6     -15.574 -40.577  35.923  0.00  0.00    -0.359 NA
ATOM     29  H   ARG A   6     -16.633 -40.610  33.686  0.00  0.00    +0.298 HD
ATOM     30  H   ARG A   6     -13.327 -41.624  35.661  0.00  0.00    +0.294 HD
ATOM     31  H   ARG A   6     -13.450 -41.943  33.990  0.00  0.00    +0.294 HD
ATOM     32  H   ARG A   6     -16.476 -40.182  35.910  0.00  0.00    +0.232 HD
ATOM     33  H   ARG A   6     -15.066 -40.616  36.766  0.00  0.00    +0.232 HD
ATOM     34  H   ARG A   6     -15.589 -39.595  35.989  0.00  0.00    +0.232 HD
ENDBRANCH  24  25
ENDBRANCH  23  24
ENDBRANCH  22  23
ENDBRANCH  10  22
ENDBRANCH   8  10
ENDBRANCH   5   6
BRANCH   5  35
ATOM     35  CB  HIS A   5     -11.163 -42.350  27.069  0.00  0.00    +0.168 C 
BRANCH  35  36
ATOM     36  CG  HIS A   5      -9.910 -42.649  27.822  0.00  0.00    -0.008 A 
ATOM     37  ND1 HIS A   5      -9.778 -43.720  28.667  0.00  0.00    -0.334 N 
ATOM     38  CD2 HIS A   5      -8.719 -41.993  27.870  0.00  0.00    +0.152 A 
ATOM     39  CE1 HIS A   5      -8.562 -43.697  29.193  0.00  0.00    +0.182 A 
ATOM     40  NE2 HIS A   5      -7.902 -42.675  28.726  0.00  0.00    -0.280 NA
ATOM     41  H   HIS A   5     -10.471 -44.394  28.853  0.00  0.00    +0.189 HD
ENDBRANCH  35  36
ENDBRANCH   5  35
ENDBRANCH   3   5
BRANCH   1  42
ATOM     42  CA  LEU A   4     -15.668 -43.251  25.807  0.00  0.00    +0.213 C 
BRANCH  42  45
ATOM     43  C   LEU A   3     -18.074 -42.931  25.977  0.00  0.00    +0.168 C 
ATOM     44  O   LEU A   3     -18.245 -43.266  24.803  0.00  0.00    -0.375 OA
ATOM     45  N   LEU A   4     -16.880 -42.906  26.528  0.00  0.00    -0.292 N 
ATOM     46  H   LEU A   4     -16.804 -42.640  27.473  0.00  0.00    +0.195 HD
BRANCH  43  47
ATOM     47  CA  LEU A   3     -19.241 -42.537  26.860  0.00  0.00    +0.213 C 
BRANCH  47  50
ATOM     48  C   LEU A   2     -21.346 -41.417  26.489  0.00  0.00    +0.169 C 
ATOM     49  O   LEU A   2     -21.338 -40.943  27.618  0.00  0.00    -0.375 OA
ATOM     50  N   LEU A   3     -20.396 -42.179  26.053  0.00  0.00    -0.292 N 
ATOM     51  H   LEU A   3     -20.458 -42.532  25.137  0.00  0.00    +0.195 HD
BRANCH  48  52
ATOM     52  CA  LEU A   2     -22.473 -41.112  25.518  0.00  0.00    +0.215 C 
BRANCH  52  55
ATOM     53  C   ALA A   1     -22.515 -39.756  23.494  0.00  0.00    +0.157 C 
ATOM     54  O   ALA A   1     -23.512 -39.143  23.890  0.00  0.00    -0.370 OA
ATOM     55  N   LEU A   2     -21.952 -40.700  24.221  0.00  0.00    -0.290 N 
ATOM     56  H   LEU A   2     -21.146 -41.146  23.873  0.00  0.00    +0.197 HD
BRANCH  53  57
ATOM     57  CA  ALA A   1     -21.885 -39.444  22.146  0.00  0.00    +0.184 C 
ATOM     58  CB  ALA A   1     -20.467 -39.993  22.092  0.00  0.00    +0.103 C 
BRANCH  57  59
ATOM     59  N   ALA A   1     -21.872 -38.007  21.883  0.00  0.00    +0.361 NA
ATOM     60  H   ALA A   1     -21.028 -37.596  22.281  0.00  0.00    +0.133 HD
ATOM     61  H   ALA A   1     -22.693 -37.577  22.309  0.00  0.00    +0.133 HD
ATOM     62  H   ALA A   1     -21.887 -37.845  20.875  0.00  0.00    +0.133 HD
ATOM     63  H   ALA A   1     -21.895 -37.156  22.445  0.00  0.00    +0.133 HD
ENDBRANCH  57  59
ENDBRANCH  53  57
ENDBRANCH  52  55
BRANCH  52  64
ATOM     64  CB  LEU A   2     -23.365 -42.343  25.365  0.00  0.00    +0.079 C 
BRANCH  64  65
ATOM     65  CG  LEU A   2     -23.370 -42.953  23.976  0.00  0.00    -0.016 C 
ATOM     66  CD2 LEU A   2     -22.633 -44.287  23.994  0.00  0.00    +0.014 C 
ATOM     67  CD1 LEU A   2     -24.790 -43.146  23.478  0.00  0.00    +0.014 C 
ENDBRANCH  64  65
ENDBRANCH  52  64
ENDBRANCH  48  52
ENDBRANCH  47  50
BRANCH  47  68
ATOM     68  CB  LEU A   3     -19.590 -43.689  27.798  0.00  0.00    +0.079 C 
BRANCH  68  69
ATOM     69  CG  LEU A   3     -20.903 -44.379  27.471  0.00  0.00    -0.016 C 
ATOM     70  CD1 LEU A   3     -20.634 -45.661  26.690  0.00  0.00    +0.014 C 
ATOM     71  CD2 LEU A   3     -21.682 -44.691  28.739  0.00  0.00    +0.014 C 
ENDBRANCH  68  69
ENDBRANCH  47  68
ENDBRANCH  43  47
ENDBRANCH  42  45
BRANCH  42  72
ATOM     72  CB  LEU A   4     -15.228 -42.085  24.935  0.00  0.00    +0.079 C 
BRANCH  72  73
ATOM     73  CG  LEU A   4     -15.075 -42.435  23.466  0.00  0.00    -0.016 C 
ATOM     74  CD2 LEU A   4     -15.343 -43.909  23.248  0.00  0.00    +0.014 C 
ATOM     75  CD1 LEU A   4     -16.003 -41.593  22.610  0.00  0.00    +0.014 C 
ENDBRANCH  72  73
ENDBRANCH  42  72
ENDBRANCH   1  42
TORSDOF 28
ENDMDL
