MODEL 1
REMARK VINA RESULT:    -9.270      0.000      0.000
REMARK INTER + INTRA:         -32.285
REMARK INTER:                 -27.424
REMARK INTRA:                  -4.862
REMARK UNBOUND:                -4.862
REMARK  Name = /mnt/hpc/home/25menglei/25wenshaohua/MD/yzy/docking/dc/peptides/pdb/fclhlqlr.pdb
REMARK  41 active torsions:
REMARK  status: ('A' for Active; 'I' for Inactive)
REMARK    1  A    between atoms: N_1  and  CA_2
REMARK    2  A    between atoms: CA_2  and  C_3
REMARK    3  A    between atoms: CA_2  and  CB_5
REMARK    4  A    between atoms: CB_5  and  CG_6
REMARK    5  A    between atoms: N_12  and  CA_13
REMARK    6  A    between atoms: CA_13  and  C_14
REMARK    7  A    between atoms: CA_13  and  CB_16
REMARK    8  A    between atoms: CB_16  and  SG_17
REMARK    9  A    between atoms: N_18  and  CA_19
REMARK   10  A    between atoms: CA_19  and  C_20
REMARK   11  A    between atoms: CA_19  and  CB_22
REMARK   12  A    between atoms: CB_22  and  CG_23
REMARK   13  A    between atoms: CG_23  and  CD1_24
REMARK   14  A    between atoms: CG_23  and  CD2_25
REMARK   15  A    between atoms: N_26  and  CA_27
REMARK   16  A    between atoms: CA_27  and  C_28
REMARK   17  A    between atoms: CA_27  and  CB_30
REMARK   18  A    between atoms: CB_30  and  CG_31
REMARK   19  A    between atoms: N_36  and  CA_37
REMARK   20  A    between atoms: CA_37  and  C_38
REMARK   21  A    between atoms: CA_37  and  CB_40
REMARK   22  A    between atoms: CB_40  and  CG_41
REMARK   23  A    between atoms: CG_41  and  CD2_42
REMARK   24  A    between atoms: CG_41  and  CD1_43
REMARK   25  A    between atoms: N_44  and  CA_45
REMARK   26  A    between atoms: CA_45  and  C_46
REMARK   27  A    between atoms: CA_45  and  CB_48
REMARK   28  A    between atoms: CB_48  and  CG_49
REMARK   29  A    between atoms: CG_49  and  CD_50
REMARK   30  A    between atoms: N_53  and  CA_54
REMARK   31  A    between atoms: CA_54  and  C_55
REMARK   32  A    between atoms: CA_54  and  CB_57
REMARK   33  A    between atoms: CB_57  and  CG_58
REMARK   34  A    between atoms: CG_58  and  CD2_59
REMARK   35  A    between atoms: CG_58  and  CD1_60
REMARK   36  A    between atoms: N_61  and  CA_62
REMARK   37  A    between atoms: CA_62  and  C_63
REMARK   38  A    between atoms: CA_62  and  CB_65
REMARK   39  A    between atoms: CB_65  and  CG_66
REMARK   40  A    between atoms: CG_66  and  CD_67
REMARK   41  A    between atoms: CD_67  and  NE_68
REMARK                            x       y       z     vdW  Elec       q    Type
REMARK                         _______ _______ _______ _____ _____    ______ ____
ROOT
ATOM      1  CA  LEU A   5     -18.646 -42.754  27.798  0.00  0.00    +0.213 C 
ENDROOT
BRANCH   1   2
ATOM      2  C   LEU A   5     -17.598 -43.047  26.726  0.00  0.00    +0.168 C 
ATOM      3  O   LEU A   5     -17.932 -43.419  25.607  0.00  0.00    -0.375 OA
ATOM      4  N   GLN A   6     -16.378 -42.869  27.048  0.00  0.00    -0.292 N 
ATOM      5  H   GLN A   6     -16.175 -42.528  27.948  0.00  0.00    +0.195 HD
BRANCH   4   6
ATOM      6  CA  GLN A   6     -15.267 -43.147  26.138  0.00  0.00    +0.218 C 
BRANCH   6   7
ATOM      7  C   GLN A   6     -14.042 -43.656  26.896  0.00  0.00    +0.169 C 
ATOM      8  O   GLN A   6     -13.966 -44.842  27.229  0.00  0.00    -0.375 OA
ATOM      9  N   LEU A   7     -13.132 -42.760  27.189  0.00  0.00    -0.292 N 
ATOM     10  H   LEU A   7     -13.273 -41.831  26.899  0.00  0.00    +0.195 HD
BRANCH   9  11
ATOM     11  CA  LEU A   7     -11.919 -43.086  27.930  0.00  0.00    +0.213 C 
BRANCH  11  12
ATOM     12  C   LEU A   7     -12.193 -43.268  29.419  0.00  0.00    +0.166 C 
ATOM     13  O   LEU A   7     -13.049 -42.587  29.978  0.00  0.00    -0.376 OA
ATOM     14  N   ARG A   8     -11.481 -44.220  30.034  0.00  0.00    -0.306 N 
ATOM     15  H   ARG A   8     -10.834 -44.730  29.495  0.00  0.00    +0.192 HD
BRANCH  14  16
ATOM     16  CA  ARG A   8     -11.601 -44.555  31.457  0.00  0.00    +0.151 C 
BRANCH  16  17
ATOM     17  C   ARG A   8     -11.575 -43.322  32.374  0.00  0.00    +0.046 C 
ATOM     18  OXT ARG A   8     -12.572 -43.081  33.057  0.00  0.00    -0.561 OA
ATOM     19  O   ARG A   8     -10.594 -42.624  32.411  0.00  0.00    -0.561 OA
ENDBRANCH  16  17
BRANCH  16  20
ATOM     20  CB  ARG A   8     -10.509 -45.533  31.873  0.00  0.00    +0.071 C 
BRANCH  20  21
ATOM     21  CG  ARG A   8      -9.454 -45.691  30.812  0.00  0.00    +0.070 C 
BRANCH  21  22
ATOM     22  CD  ARG A   8      -8.078 -45.389  31.351  0.00  0.00    +0.228 C 
BRANCH  22  23
ATOM     23  NE  ARG A   8      -8.180 -44.470  32.474  0.00  0.00    -0.331 N 
ATOM     24  CZ  ARG A   8      -7.491 -43.341  32.562  0.00  0.00    +0.115 C 
ATOM     25  NH2 ARG A   8      -6.652 -42.988  31.607  0.00  0.00    -0.317 N 
ATOM     26  NH1 ARG A   8      -7.649 -42.567  33.609  0.00  0.00    -0.359 NA
ATOM     27  H   ARG A   8      -8.793 -44.700  33.209  0.00  0.00    +0.298 HD
ATOM     28  H   ARG A   8      -6.145 -42.147  31.682  0.00  0.00    +0.294 HD
ATOM     29  H   ARG A   8      -6.533 -43.565  30.819  0.00  0.00    +0.294 HD
ATOM     30  H   ARG A   8      -8.274 -42.827  34.324  0.00  0.00    +0.232 HD
ATOM     31  H   ARG A   8      -7.142 -41.725  33.681  0.00  0.00    +0.232 HD
ATOM     32  H   ARG A   8      -7.297 -42.111  32.811  0.00  0.00    +0.232 HD
ENDBRANCH  22  23
ENDBRANCH  21  22
ENDBRANCH  20  21
ENDBRANCH  16  20
ENDBRANCH  14  16
ENDBRANCH  11  12
BRANCH  11  33
ATOM     33  CB  LEU A   7     -10.888 -41.976  27.698  0.00  0.00    +0.079 C 
BRANCH  33  34
ATOM     34  CG  LEU A   7      -9.460 -42.456  27.622  0.00  0.00    -0.016 C 
ATOM     35  CD2 LEU A   7      -8.698 -41.655  26.581  0.00  0.00    +0.014 C 
ATOM     36  CD1 LEU A   7      -8.778 -42.327  28.958  0.00  0.00    +0.014 C 
ENDBRANCH  33  34
ENDBRANCH  11  33
ENDBRANCH   9  11
ENDBRANCH   6   7
BRANCH   6  37
ATOM     37  CB  GLN A   6     -14.916 -41.885  25.348  0.00  0.00    +0.113 C 
BRANCH  37  38
ATOM     38  CG  GLN A   6     -15.279 -41.978  23.884  0.00  0.00    +0.194 C 
BRANCH  38  39
ATOM     39  CD  GLN A   6     -15.215 -43.400  23.383  0.00  0.00    +0.136 C 
ATOM     40  OE1 GLN A   6     -14.167 -44.012  23.366  0.00  0.00    -0.387 OA
ATOM     41  NE2 GLN A   6     -16.359 -43.942  22.982  0.00  0.00    -0.326 N 
ATOM     42  H   GLN A   6     -17.190 -43.415  23.009  0.00  0.00    +0.178 HD
ATOM     43  H   GLN A   6     -16.376 -44.870  22.656  0.00  0.00    +0.178 HD
ENDBRANCH  38  39
ENDBRANCH  37  38
ENDBRANCH   6  37
ENDBRANCH   4   6
ENDBRANCH   1   2
BRANCH   1  46
ATOM     44  C   HIS A   4     -20.898 -42.486  26.982  0.00  0.00    +0.169 C 
ATOM     45  O   HIS A   4     -20.760 -41.275  26.833  0.00  0.00    -0.375 OA
ATOM     46  N   LEU A   5     -19.963 -43.264  27.425  0.00  0.00    -0.292 N 
ATOM     47  H   LEU A   5     -20.145 -44.227  27.513  0.00  0.00    +0.195 HD
BRANCH  44  48
ATOM     48  CA  HIS A   4     -22.225 -43.159  26.639  0.00  0.00    +0.220 C 
BRANCH  48  51
ATOM     49  C   LEU A   3     -23.587 -42.607  24.662  0.00  0.00    +0.168 C 
ATOM     50  O   LEU A   3     -24.452 -42.054  25.333  0.00  0.00    -0.375 OA
ATOM     51  N   HIS A   4     -22.491 -43.128  25.199  0.00  0.00    -0.291 N 
ATOM     52  H   HIS A   4     -21.818 -43.516  24.594  0.00  0.00    +0.195 HD
BRANCH  49  53
ATOM     53  CA  LEU A   3     -23.715 -42.698  23.133  0.00  0.00    +0.213 C 
BRANCH  53  56
ATOM     54  C   CYS A   2     -24.670 -41.023  21.677  0.00  0.00    +0.172 C 
ATOM     55  O   CYS A   2     -25.538 -41.810  21.316  0.00  0.00    -0.375 OA
ATOM     56  N   LEU A   3     -23.751 -41.363  22.532  0.00  0.00    -0.292 N 
ATOM     57  H   LEU A   3     -23.062 -40.707  22.782  0.00  0.00    +0.195 HD
BRANCH  54  58
ATOM     58  CA  CYS A   2     -24.669 -39.579  21.166  0.00  0.00    +0.230 C 
BRANCH  58  61
ATOM     59  C   PHE A   1     -22.577 -39.450  19.850  0.00  0.00    +0.160 C 
ATOM     60  O   PHE A   1     -22.894 -40.384  19.110  0.00  0.00    -0.369 OA
ATOM     61  N   CYS A   2     -23.336 -39.037  20.864  0.00  0.00    -0.287 N 
ATOM     62  H   CYS A   2     -22.982 -38.326  21.447  0.00  0.00    +0.198 HD
BRANCH  59  63
ATOM     63  CA  PHE A   1     -21.271 -38.690  19.605  0.00  0.00    +0.198 C 
BRANCH  63  64
ATOM     64  N   PHE A   1     -21.417 -37.536  18.696  0.00  0.00    +0.362 NA
ATOM     65  H   PHE A   1     -21.338 -37.852  17.730  0.00  0.00    +0.134 HD
ATOM     66  H   PHE A   1     -20.684 -36.854  18.892  0.00  0.00    +0.134 HD
ATOM     67  H   PHE A   1     -22.331 -37.104  18.838  0.00  0.00    +0.134 HD
ATOM     68  H   PHE A   1     -22.207 -38.177  18.619  0.00  0.00    +0.134 HD
ENDBRANCH  63  64
BRANCH  63  69
ATOM     69  CB  PHE A   1     -20.656 -38.259  20.925  0.00  0.00    +0.129 C 
BRANCH  69  70
ATOM     70  CG  PHE A   1     -20.055 -39.398  21.690  0.00  0.00    -0.070 A 
ATOM     71  CD1 PHE A   1     -20.705 -39.924  22.792  0.00  0.00    +0.009 A 
ATOM     72  CD2 PHE A   1     -18.827 -39.913  21.315  0.00  0.00    +0.009 A 
ATOM     73  CE1 PHE A   1     -20.139 -40.955  23.500  0.00  0.00    +0.002 A 
ATOM     74  CE2 PHE A   1     -18.253 -40.947  22.031  0.00  0.00    +0.002 A 
ATOM     75  CZ  PHE A   1     -18.915 -41.465  23.124  0.00  0.00    +0.001 A 
ENDBRANCH  69  70
ENDBRANCH  63  69
ENDBRANCH  59  63
ENDBRANCH  58  61
BRANCH  58  76
ATOM     76  CB  CYS A   2     -25.550 -39.430  19.933  0.00  0.00    +0.157 C 
BRANCH  76  77
ATOM     77  SG  CYS A   2     -27.040 -38.471  20.286  0.00  0.00    -0.219 S 
ATOM     78  H   CYS A   2     -26.708 -37.164  20.457  0.00  0.00    +0.129 HD
ENDBRANCH  76  77
ENDBRANCH  58  76
ENDBRANCH  54  58
ENDBRANCH  53  56
BRANCH  53  79
ATOM     79  CB  LEU A   3     -22.583 -43.531  22.522  0.00  0.00    +0.079 C 
BRANCH  79  80
ATOM     80  CG  LEU A   3     -22.944 -44.948  22.058  0.00  0.00    -0.016 C 
ATOM     81  CD1 LEU A   3     -23.032 -45.933  23.215  0.00  0.00    +0.014 C 
ATOM     82  CD2 LEU A   3     -24.273 -44.908  21.334  0.00  0.00    +0.014 C 
ENDBRANCH  79  80
ENDBRANCH  53  79
ENDBRANCH  49  53
ENDBRANCH  48  51
BRANCH  48  83
ATOM     83  CB  HIS A   4     -22.227 -44.611  27.146  0.00  0.00    +0.121 C 
BRANCH  83  84
ATOM     84  CG  HIS A   4     -23.078 -44.843  28.355  0.00  0.00    +0.106 C 
ATOM     85  ND1 HIS A   4     -24.274 -45.518  28.314  0.00  0.00    -0.355 N 
ATOM     86  CD2 HIS A   4     -22.886 -44.469  29.645  0.00  0.00    +0.217 C 
ATOM     87  CE1 HIS A   4     -24.775 -45.547  29.543  0.00  0.00    +0.170 C 
ATOM     88  NE2 HIS A   4     -23.965 -44.908  30.369  0.00  0.00    -0.351 NA
ATOM     89  H   HIS A   4     -24.687 -45.912  27.512  0.00  0.00    +0.174 HD
ENDBRANCH  83  84
ENDBRANCH  48  83
ENDBRANCH  44  48
ENDBRANCH   1  46
BRANCH   1  90
ATOM     90  CB  LEU A   5     -18.224 -43.362  29.142  0.00  0.00    +0.079 C 
BRANCH  90  91
ATOM     91  CG  LEU A   5     -16.932 -42.784  29.733  0.00  0.00    -0.016 C 
ATOM     92  CD2 LEU A   5     -17.249 -41.909  30.932  0.00  0.00    +0.014 C 
ATOM     93  CD1 LEU A   5     -15.985 -43.901  30.144  0.00  0.00    +0.014 C 
ENDBRANCH  90  91
ENDBRANCH   1  90
TORSDOF 35
ENDMDL
