MODEL 1
REMARK VINA RESULT:    -9.597      0.000      0.000
REMARK INTER + INTRA:         -28.117
REMARK INTER:                 -25.587
REMARK INTRA:                  -2.530
REMARK UNBOUND:                -2.530
REMARK  Name = /mnt/hpc/home/25menglei/25wenshaohua/MD/yzy/docking/dc/peptides/pdb/fllhttr.pdb
REMARK  36 active torsions:
REMARK  status: ('A' for Active; 'I' for Inactive)
REMARK    1  A    between atoms: N_1  and  CA_2
REMARK    2  A    between atoms: CA_2  and  C_3
REMARK    3  A    between atoms: CA_2  and  CB_5
REMARK    4  A    between atoms: CB_5  and  CG_6
REMARK    5  A    between atoms: N_12  and  CA_13
REMARK    6  A    between atoms: CA_13  and  C_14
REMARK    7  A    between atoms: CA_13  and  CB_16
REMARK    8  A    between atoms: CB_16  and  CG_17
REMARK    9  A    between atoms: CG_17  and  CD2_18
REMARK   10  A    between atoms: CG_17  and  CD1_19
REMARK   11  A    between atoms: N_20  and  CA_21
REMARK   12  A    between atoms: CA_21  and  C_22
REMARK   13  A    between atoms: CA_21  and  CB_24
REMARK   14  A    between atoms: CB_24  and  CG_25
REMARK   15  A    between atoms: CG_25  and  CD1_26
REMARK   16  A    between atoms: CG_25  and  CD2_27
REMARK   17  A    between atoms: N_28  and  CA_29
REMARK   18  A    between atoms: CA_29  and  C_30
REMARK   19  A    between atoms: CA_29  and  CB_32
REMARK   20  A    between atoms: CB_32  and  CG_33
REMARK   21  A    between atoms: N_38  and  CA_39
REMARK   22  A    between atoms: CA_39  and  C_40
REMARK   23  A    between atoms: CA_39  and  CB_42
REMARK   24  A    between atoms: CB_42  and  OG1_43
REMARK   25  A    between atoms: CB_42  and  CG2_44
REMARK   26  A    between atoms: N_45  and  CA_46
REMARK   27  A    between atoms: CA_46  and  C_47
REMARK   28  A    between atoms: CA_46  and  CB_49
REMARK   29  A    between atoms: CB_49  and  OG1_50
REMARK   30  A    between atoms: CB_49  and  CG2_51
REMARK   31  A    between atoms: N_52  and  CA_53
REMARK   32  A    between atoms: CA_53  and  C_54
REMARK   33  A    between atoms: CA_53  and  CB_56
REMARK   34  A    between atoms: CB_56  and  CG_57
REMARK   35  A    between atoms: CG_57  and  CD_58
REMARK   36  A    between atoms: CD_58  and  NE_59
REMARK                            x       y       z     vdW  Elec       q    Type
REMARK                         _______ _______ _______ _____ _____    ______ ____
ROOT
ATOM      1  CA  HIS A   4     -18.759 -43.384  26.384  0.00  0.00    +0.220 C 
ENDROOT
BRANCH   1   2
ATOM      2  C   HIS A   4     -19.853 -43.195  25.332  0.00  0.00    +0.171 C 
ATOM      3  O   HIS A   4     -20.400 -44.152  24.793  0.00  0.00    -0.375 OA
ATOM      4  N   THR A   5     -20.133 -41.953  25.082  0.00  0.00    -0.284 N 
ATOM      5  H   THR A   5     -19.672 -41.243  25.585  0.00  0.00    +0.198 HD
BRANCH   4   6
ATOM      6  CA  THR A   5     -21.122 -41.588  24.067  0.00  0.00    +0.250 C 
BRANCH   6   7
ATOM      7  C   THR A   5     -20.447 -41.314  22.732  0.00  0.00    +0.178 C 
ATOM      8  O   THR A   5     -19.394 -40.669  22.667  0.00  0.00    -0.373 OA
ATOM      9  N   THR A   6     -21.030 -41.806  21.714  0.00  0.00    -0.283 N 
ATOM     10  H   THR A   6     -21.877 -42.287  21.854  0.00  0.00    +0.198 HD
BRANCH   9  11
ATOM     11  CA  THR A   6     -20.518 -41.699  20.355  0.00  0.00    +0.250 C 
BRANCH  11  12
ATOM     12  C   THR A   6     -20.602 -40.266  19.837  0.00  0.00    +0.175 C 
ATOM     13  O   THR A   6     -19.590 -39.637  19.540  0.00  0.00    -0.374 OA
ATOM     14  N   ARG A   7     -21.809 -39.798  19.758  0.00  0.00    -0.304 N 
ATOM     15  H   ARG A   7     -22.561 -40.380  20.014  0.00  0.00    +0.192 HD
BRANCH  14  16
ATOM     16  CA  ARG A   7     -22.093 -38.444  19.306  0.00  0.00    +0.151 C 
BRANCH  16  17
ATOM     17  C   ARG A   7     -22.419 -37.526  20.487  0.00  0.00    +0.046 C 
ATOM     18  OXT ARG A   7     -22.750 -36.342  20.249  0.00  0.00    -0.561 OA
ATOM     19  O   ARG A   7     -22.351 -37.891  21.649  0.00  0.00    -0.561 OA
ENDBRANCH  16  17
BRANCH  16  20
ATOM     20  CB  ARG A   7     -23.276 -38.456  18.315  0.00  0.00    +0.071 C 
BRANCH  20  21
ATOM     21  CG  ARG A   7     -23.185 -37.465  17.174  0.00  0.00    +0.070 C 
BRANCH  21  22
ATOM     22  CD  ARG A   7     -24.268 -36.410  17.281  0.00  0.00    +0.228 C 
BRANCH  22  23
ATOM     23  NE  ARG A   7     -23.690 -35.070  17.382  0.00  0.00    -0.331 N 
ATOM     24  CZ  ARG A   7     -24.033 -34.161  18.308  0.00  0.00    +0.115 C 
ATOM     25  NH2 ARG A   7     -24.942 -34.453  19.236  0.00  0.00    -0.317 N 
ATOM     26  NH1 ARG A   7     -23.478 -32.969  18.292  0.00  0.00    -0.359 NA
ATOM     27  H   ARG A   7     -23.002 -34.817  16.726  0.00  0.00    +0.298 HD
ATOM     28  H   ARG A   7     -25.188 -33.781  19.912  0.00  0.00    +0.294 HD
ATOM     29  H   ARG A   7     -25.368 -35.341  19.246  0.00  0.00    +0.294 HD
ATOM     30  H   ARG A   7     -23.727 -32.301  18.971  0.00  0.00    +0.232 HD
ATOM     31  H   ARG A   7     -22.812 -32.745  17.603  0.00  0.00    +0.232 HD
ATOM     32  H   ARG A   7     -24.229 -32.653  18.845  0.00  0.00    +0.232 HD
ENDBRANCH  22  23
ENDBRANCH  21  22
ENDBRANCH  20  21
ENDBRANCH  16  20
ENDBRANCH  14  16
ENDBRANCH  11  12
BRANCH  11  33
ATOM     33  CB  THR A   6     -21.266 -42.648  19.390  0.00  0.00    +0.150 C 
ATOM     34  CG2 THR A   6     -20.666 -44.037  19.418  0.00  0.00    +0.087 C 
BRANCH  33  35
ATOM     35  OG1 THR A   6     -22.646 -42.725  19.751  0.00  0.00    -0.445 OA
ATOM     36  H   THR A   6     -23.195 -42.557  18.969  0.00  0.00    +0.238 HD
ENDBRANCH  33  35
ENDBRANCH  11  33
ENDBRANCH   9  11
ENDBRANCH   6   7
BRANCH   6  37
ATOM     37  CB  THR A   5     -21.973 -40.383  24.511  0.00  0.00    +0.150 C 
ATOM     38  CG2 THR A   5     -23.283 -40.322  23.749  0.00  0.00    +0.087 C 
BRANCH  37  39
ATOM     39  OG1 THR A   5     -22.239 -40.446  25.910  0.00  0.00    -0.445 OA
ATOM     40  H   THR A   5     -22.008 -41.328  26.243  0.00  0.00    +0.238 HD
ENDBRANCH  37  39
ENDBRANCH   6  37
ENDBRANCH   4   6
ENDBRANCH   1   2
BRANCH   1  43
ATOM     41  C   LEU A   3     -16.408 -42.921  26.601  0.00  0.00    +0.168 C 
ATOM     42  O   LEU A   3     -16.404 -43.265  27.779  0.00  0.00    -0.375 OA
ATOM     43  N   HIS A   4     -17.485 -42.901  25.876  0.00  0.00    -0.291 N 
ATOM     44  H   HIS A   4     -17.438 -42.549  24.957  0.00  0.00    +0.195 HD
BRANCH  41  45
ATOM     45  CA  LEU A   3     -15.136 -42.438  25.904  0.00  0.00    +0.213 C 
BRANCH  45  48
ATOM     46  C   LEU A   2     -13.306 -43.210  27.272  0.00  0.00    +0.169 C 
ATOM     47  O   LEU A   2     -13.449 -44.377  26.911  0.00  0.00    -0.375 OA
ATOM     48  N   LEU A   3     -14.051 -42.245  26.864  0.00  0.00    -0.292 N 
ATOM     49  H   LEU A   3     -13.885 -41.340  27.212  0.00  0.00    +0.195 HD
BRANCH  46  50
ATOM     50  CA  LEU A   2     -12.188 -42.830  28.244  0.00  0.00    +0.215 C 
BRANCH  50  53
ATOM     51  C   PHE A   1     -12.413 -42.973  30.657  0.00  0.00    +0.160 C 
ATOM     52  O   PHE A   1     -12.409 -41.745  30.773  0.00  0.00    -0.369 OA
ATOM     53  N   LEU A   2     -12.318 -43.555  29.508  0.00  0.00    -0.290 N 
ATOM     54  H   LEU A   2     -12.334 -44.539  29.481  0.00  0.00    +0.197 HD
BRANCH  51  55
ATOM     55  CA  PHE A   1     -12.472 -43.870  31.898  0.00  0.00    +0.198 C 
BRANCH  55  56
ATOM     56  N   PHE A   1     -13.848 -44.374  32.085  0.00  0.00    +0.362 NA
ATOM     57  H   PHE A   1     -13.815 -45.296  32.520  0.00  0.00    +0.134 HD
ATOM     58  H   PHE A   1     -14.311 -44.440  31.180  0.00  0.00    +0.134 HD
ATOM     59  H   PHE A   1     -14.366 -43.733  32.686  0.00  0.00    +0.134 HD
ATOM     60  H   PHE A   1     -13.404 -44.898  31.331  0.00  0.00    +0.134 HD
ENDBRANCH  55  56
BRANCH  55  61
ATOM     61  CB  PHE A   1     -11.486 -45.041  31.793  0.00  0.00    +0.129 C 
BRANCH  61  62
ATOM     62  CG  PHE A   1     -10.054 -44.656  32.042  0.00  0.00    -0.070 A 
ATOM     63  CD2 PHE A   1      -9.021 -45.474  31.602  0.00  0.00    +0.009 A 
ATOM     64  CD1 PHE A   1      -9.754 -43.484  32.703  0.00  0.00    +0.009 A 
ATOM     65  CE2 PHE A   1      -7.710 -45.124  31.825  0.00  0.00    +0.002 A 
ATOM     66  CE1 PHE A   1      -8.427 -43.124  32.932  0.00  0.00    +0.002 A 
ATOM     67  CZ  PHE A   1      -7.413 -43.949  32.486  0.00  0.00    +0.001 A 
ENDBRANCH  61  62
ENDBRANCH  55  61
ENDBRANCH  51  55
ENDBRANCH  50  53
BRANCH  50  68
ATOM     68  CB  LEU A   2     -10.800 -43.080  27.629  0.00  0.00    +0.079 C 
BRANCH  68  69
ATOM     69  CG  LEU A   2      -9.676 -42.124  28.025  0.00  0.00    -0.016 C 
ATOM     70  CD2 LEU A   2      -8.769 -42.704  29.115  0.00  0.00    +0.014 C 
ATOM     71  CD1 LEU A   2      -8.848 -41.780  26.788  0.00  0.00    +0.014 C 
ENDBRANCH  68  69
ENDBRANCH  50  68
ENDBRANCH  46  50
ENDBRANCH  45  48
BRANCH  45  72
ATOM     72  CB  LEU A   3     -14.709 -43.379  24.765  0.00  0.00    +0.079 C 
BRANCH  72  73
ATOM     73  CG  LEU A   3     -15.030 -42.978  23.314  0.00  0.00    -0.016 C 
ATOM     74  CD1 LEU A   3     -16.278 -43.709  22.791  0.00  0.00    +0.014 C 
ATOM     75  CD2 LEU A   3     -15.251 -41.479  23.226  0.00  0.00    +0.014 C 
ENDBRANCH  72  73
ENDBRANCH  45  72
ENDBRANCH  41  45
ENDBRANCH   1  43
BRANCH   1  76
ATOM     76  CB  HIS A   4     -19.126 -42.676  27.693  0.00  0.00    +0.121 C 
BRANCH  76  77
ATOM     77  CG  HIS A   4     -20.376 -43.213  28.336  0.00  0.00    +0.106 C 
ATOM     78  ND1 HIS A   4     -20.370 -44.121  29.376  0.00  0.00    -0.355 N 
ATOM     79  CD2 HIS A   4     -21.676 -42.961  28.042  0.00  0.00    +0.217 C 
ATOM     80  CE1 HIS A   4     -21.624 -44.402  29.692  0.00  0.00    +0.170 C 
ATOM     81  NE2 HIS A   4     -22.442 -43.714  28.901  0.00  0.00    -0.351 NA
ATOM     82  H   HIS A   4     -19.569 -44.497  29.809  0.00  0.00    +0.174 HD
ENDBRANCH  76  77
ENDBRANCH   1  76
TORSDOF 30
ENDMDL
