MODEL 1
REMARK VINA RESULT:    -8.352      0.000      0.000
REMARK INTER + INTRA:         -30.208
REMARK INTER:                 -24.466
REMARK INTRA:                  -5.742
REMARK UNBOUND:                -5.742
REMARK  Name = /mnt/hpc/home/25menglei/25wenshaohua/MD/yzy/docking/dc/peptides/pdb/hlpllhrcc.pdb
REMARK  41 active torsions:
REMARK  status: ('A' for Active; 'I' for Inactive)
REMARK    1  A    between atoms: N_1  and  CA_2
REMARK    2  A    between atoms: CA_2  and  C_3
REMARK    3  A    between atoms: CA_2  and  CB_5
REMARK    4  A    between atoms: CB_5  and  CG_6
REMARK    5  A    between atoms: N_11  and  CA_12
REMARK    6  A    between atoms: CA_12  and  C_13
REMARK    7  A    between atoms: CA_12  and  CB_15
REMARK    8  A    between atoms: CB_15  and  CG_16
REMARK    9  A    between atoms: CG_16  and  CD1_17
REMARK   10  A    between atoms: CG_16  and  CD2_18
REMARK   11  A    between atoms: CA_20  and  C_21
REMARK   12  A    between atoms: N_26  and  CA_27
REMARK   13  A    between atoms: CA_27  and  C_28
REMARK   14  A    between atoms: CA_27  and  CB_30
REMARK   15  A    between atoms: CB_30  and  CG_31
REMARK   16  A    between atoms: CG_31  and  CD1_32
REMARK   17  A    between atoms: CG_31  and  CD2_33
REMARK   18  A    between atoms: N_34  and  CA_35
REMARK   19  A    between atoms: CA_35  and  C_36
REMARK   20  A    between atoms: CA_35  and  CB_38
REMARK   21  A    between atoms: CB_38  and  CG_39
REMARK   22  A    between atoms: CG_39  and  CD1_40
REMARK   23  A    between atoms: CG_39  and  CD2_41
REMARK   24  A    between atoms: N_42  and  CA_43
REMARK   25  A    between atoms: CA_43  and  C_44
REMARK   26  A    between atoms: CA_43  and  CB_46
REMARK   27  A    between atoms: CB_46  and  CG_47
REMARK   28  A    between atoms: N_52  and  CA_53
REMARK   29  A    between atoms: CA_53  and  C_54
REMARK   30  A    between atoms: CA_53  and  CB_56
REMARK   31  A    between atoms: CB_56  and  CG_57
REMARK   32  A    between atoms: CG_57  and  CD_58
REMARK   33  A    between atoms: CD_58  and  NE_59
REMARK   34  A    between atoms: N_63  and  CA_64
REMARK   35  A    between atoms: CA_64  and  C_65
REMARK   36  A    between atoms: CA_64  and  CB_67
REMARK   37  A    between atoms: CB_67  and  SG_68
REMARK   38  A    between atoms: N_69  and  CA_70
REMARK   39  A    between atoms: CA_70  and  C_71
REMARK   40  A    between atoms: CA_70  and  CB_73
REMARK   41  A    between atoms: CB_73  and  SG_74
REMARK                            x       y       z     vdW  Elec       q    Type
REMARK                         _______ _______ _______ _____ _____    ______ ____
ROOT
ATOM      1  C   LEU A   5     -21.273 -41.587  26.723  0.00  0.00    +0.169 C 
ATOM      2  O   LEU A   5     -21.240 -40.788  27.655  0.00  0.00    -0.375 OA
ATOM      3  N   HIS A   6     -20.278 -42.401  26.426  0.00  0.00    -0.290 N 
ATOM      4  H   HIS A   6     -20.351 -43.003  25.650  0.00  0.00    +0.196 HD
ENDROOT
BRANCH   3   5
ATOM      5  CA  HIS A   6     -19.073 -42.412  27.244  0.00  0.00    +0.229 C 
BRANCH   5   6
ATOM      6  C   HIS A   6     -17.907 -43.008  26.467  0.00  0.00    +0.171 C 
ATOM      7  O   HIS A   6     -18.085 -43.562  25.382  0.00  0.00    -0.375 OA
ATOM      8  N   ARG A   7     -16.724 -42.892  27.005  0.00  0.00    -0.292 N 
ATOM      9  H   ARG A   7     -16.643 -42.451  27.881  0.00  0.00    +0.195 HD
BRANCH   8  10
ATOM     10  CA  ARG A   7     -15.518 -43.390  26.357  0.00  0.00    +0.215 C 
BRANCH  10  11
ATOM     11  C   ARG A   7     -14.464 -43.777  27.385  0.00  0.00    +0.169 C 
ATOM     12  O   ARG A   7     -14.538 -44.840  27.992  0.00  0.00    -0.375 OA
ATOM     13  N   CYS A   8     -13.492 -42.923  27.607  0.00  0.00    -0.289 N 
ATOM     14  H   CYS A   8     -13.479 -42.082  27.095  0.00  0.00    +0.196 HD
BRANCH  13  15
ATOM     15  CA  CYS A   8     -12.426 -43.164  28.582  0.00  0.00    +0.228 C 
BRANCH  15  16
ATOM     16  C   CYS A   8     -12.827 -42.731  29.990  0.00  0.00    +0.170 C 
ATOM     17  O   CYS A   8     -12.373 -41.695  30.473  0.00  0.00    -0.375 OA
ATOM     18  N   CYS A   9     -13.674 -43.533  30.598  0.00  0.00    -0.302 N 
ATOM     19  H   CYS A   9     -14.027 -44.321  30.126  0.00  0.00    +0.193 HD
BRANCH  18  20
ATOM     20  CA  CYS A   9     -14.093 -43.257  31.973  0.00  0.00    +0.164 C 
BRANCH  20  21
ATOM     21  C   CYS A   9     -14.207 -44.528  32.806  0.00  0.00    +0.049 C 
ATOM     22  O   CYS A   9     -13.716 -45.582  32.407  0.00  0.00    -0.561 OA
ATOM     23  OXT CYS A   9     -14.810 -44.443  33.904  0.00  0.00    -0.561 OA
ENDBRANCH  20  21
BRANCH  20  24
ATOM     24  CB  CYS A   9     -15.426 -42.500  31.982  0.00  0.00    +0.139 C 
BRANCH  24  25
ATOM     25  SG  CYS A   9     -15.542 -41.201  33.248  0.00  0.00    -0.222 S 
ATOM     26  H   CYS A   9     -16.670 -40.469  33.046  0.00  0.00    +0.129 HD
ENDBRANCH  24  25
ENDBRANCH  20  24
ENDBRANCH  18  20
ENDBRANCH  15  16
BRANCH  15  27
ATOM     27  CB  CYS A   8     -11.146 -42.436  28.163  0.00  0.00    +0.157 C 
BRANCH  27  28
ATOM     28  SG  CYS A   8      -9.642 -43.281  28.693  0.00  0.00    -0.219 S 
ATOM     29  H   CYS A   8      -9.958 -44.238  29.606  0.00  0.00    +0.129 HD
ENDBRANCH  27  28
ENDBRANCH  15  27
ENDBRANCH  13  15
ENDBRANCH  10  11
BRANCH  10  30
ATOM     30  CB  ARG A   7     -14.964 -42.349  25.385  0.00  0.00    +0.089 C 
BRANCH  30  31
ATOM     31  CG  ARG A   7     -14.561 -42.938  24.049  0.00  0.00    +0.073 C 
BRANCH  31  32
ATOM     32  CD  ARG A   7     -15.784 -43.221  23.199  0.00  0.00    +0.228 C 
BRANCH  32  33
ATOM     33  NE  ARG A   7     -16.342 -41.975  22.662  0.00  0.00    -0.331 N 
ATOM     34  CZ  ARG A   7     -17.622 -41.820  22.338  0.00  0.00    +0.115 C 
ATOM     35  NH2 ARG A   7     -18.480 -42.812  22.491  0.00  0.00    -0.317 N 
ATOM     36  NH1 ARG A   7     -18.028 -40.668  21.847  0.00  0.00    -0.359 NA
ATOM     37  H   ARG A   7     -15.734 -41.210  22.535  0.00  0.00    +0.298 HD
ATOM     38  H   ARG A   7     -19.425 -42.687  22.248  0.00  0.00    +0.294 HD
ATOM     39  H   ARG A   7     -18.173 -43.677  22.849  0.00  0.00    +0.294 HD
ATOM     40  H   ARG A   7     -17.387 -39.929  21.734  0.00  0.00    +0.232 HD
ATOM     41  H   ARG A   7     -18.971 -40.545  21.595  0.00  0.00    +0.232 HD
ATOM     42  H   ARG A   7     -18.811 -40.738  22.439  0.00  0.00    +0.232 HD
ENDBRANCH  32  33
ENDBRANCH  31  32
ENDBRANCH  30  31
ENDBRANCH  10  30
ENDBRANCH   8  10
ENDBRANCH   5   6
BRANCH   5  43
ATOM     43  CB  HIS A   6     -19.312 -43.236  28.507  0.00  0.00    +0.168 C 
BRANCH  43  44
ATOM     44  CG  HIS A   6     -20.544 -44.082  28.406  0.00  0.00    -0.008 A 
ATOM     45  ND1 HIS A   6     -21.654 -43.890  29.183  0.00  0.00    -0.334 N 
ATOM     46  CD2 HIS A   6     -20.810 -45.127  27.593  0.00  0.00    +0.152 A 
ATOM     47  CE1 HIS A   6     -22.559 -44.786  28.853  0.00  0.00    +0.182 A 
ATOM     48  NE2 HIS A   6     -22.084 -45.558  27.885  0.00  0.00    -0.280 NA
ATOM     49  H   HIS A   6     -21.758 -43.196  29.874  0.00  0.00    +0.189 HD
ENDBRANCH  43  44
ENDBRANCH   5  43
ENDBRANCH   3   5
BRANCH   1  50
ATOM     50  CA  LEU A   5     -22.475 -41.668  25.794  0.00  0.00    +0.213 C 
BRANCH  50  53
ATOM     51  C   LEU A   4     -22.746 -41.299  23.399  0.00  0.00    +0.168 C 
ATOM     52  O   LEU A   4     -23.793 -40.674  23.558  0.00  0.00    -0.375 OA
ATOM     53  N   LEU A   5     -22.046 -41.813  24.407  0.00  0.00    -0.292 N 
ATOM     54  H   LEU A   5     -21.217 -42.306  24.211  0.00  0.00    +0.195 HD
BRANCH  51  55
ATOM     55  CA  LEU A   4     -22.176 -41.529  22.008  0.00  0.00    +0.213 C 
BRANCH  55  58
ATOM     56  C   PRO A   3     -22.210 -43.937  21.742  0.00  0.00    +0.169 C 
ATOM     57  O   PRO A   3     -21.275 -44.085  22.536  0.00  0.00    -0.375 OA
ATOM     58  N   LEU A   4     -22.715 -42.749  21.437  0.00  0.00    -0.292 N 
ATOM     59  H   LEU A   4     -23.472 -42.693  20.809  0.00  0.00    +0.195 HD
BRANCH  56  63
ATOM     60  C   LEU A   2     -22.963 -46.710  22.928  0.00  0.00    +0.171 C 
ATOM     61  O   LEU A   2     -21.727 -46.786  22.989  0.00  0.00    -0.374 OA
ATOM     62  N   PRO A   3     -23.592 -45.957  22.031  0.00  0.00    -0.296 N 
ATOM     63  CA  PRO A   3     -22.864 -45.136  21.067  0.00  0.00    +0.217 C 
ATOM     64  CB  PRO A   3     -23.944 -44.683  20.093  0.00  0.00    +0.084 C 
ATOM     65  CG  PRO A   3     -25.198 -44.695  20.919  0.00  0.00    +0.049 C 
ATOM     66  CD  PRO A   3     -25.038 -45.850  21.880  0.00  0.00    +0.147 C 
BRANCH  60  67
ATOM     67  CA  LEU A   2     -23.825 -47.500  23.912  0.00  0.00    +0.216 C 
BRANCH  67  70
ATOM     68  C   HIS A   1     -23.347 -49.847  23.482  0.00  0.00    +0.161 C 
ATOM     69  O   HIS A   1     -24.023 -49.859  22.456  0.00  0.00    -0.369 OA
ATOM     70  N   LEU A   2     -23.191 -48.769  24.237  0.00  0.00    -0.290 N 
ATOM     71  H   LEU A   2     -22.629 -48.830  25.043  0.00  0.00    +0.197 HD
BRANCH  68  72
ATOM     72  CA  HIS A   1     -22.653 -51.111  23.963  0.00  0.00    +0.205 C 
BRANCH  72  73
ATOM     73  N   HIS A   1     -21.371 -51.288  23.256  0.00  0.00    +0.362 NA
ATOM     74  H   HIS A   1     -20.646 -50.744  23.724  0.00  0.00    +0.134 HD
ATOM     75  H   HIS A   1     -21.467 -50.968  22.292  0.00  0.00    +0.134 HD
ATOM     76  H   HIS A   1     -21.113 -52.275  23.262  0.00  0.00    +0.134 HD
ATOM     77  H   HIS A   1     -22.195 -51.273  23.857  0.00  0.00    +0.134 HD
ENDBRANCH  72  73
BRANCH  72  78
ATOM     78  CB  HIS A   1     -22.407 -51.029  25.468  0.00  0.00    +0.167 C 
BRANCH  78  79
ATOM     79  CG  HIS A   1     -23.143 -52.103  26.224  0.00  0.00    -0.006 A 
ATOM     80  ND1 HIS A   1     -22.977 -53.443  25.989  0.00  0.00    -0.333 N 
ATOM     81  CD2 HIS A   1     -24.048 -52.002  27.225  0.00  0.00    +0.153 A 
ATOM     82  CE1 HIS A   1     -23.747 -54.131  26.811  0.00  0.00    +0.183 A 
ATOM     83  NE2 HIS A   1     -24.418 -53.280  27.589  0.00  0.00    -0.280 NA
ATOM     84  H   HIS A   1     -22.376 -53.832  25.313  0.00  0.00    +0.189 HD
ENDBRANCH  78  79
ENDBRANCH  72  78
ENDBRANCH  68  72
ENDBRANCH  67  70
BRANCH  67  85
ATOM     85  CB  LEU A   2     -24.052 -46.676  25.183  0.00  0.00    +0.079 C 
BRANCH  85  86
ATOM     86  CG  LEU A   2     -25.493 -46.693  25.712  0.00  0.00    -0.016 C 
ATOM     87  CD1 LEU A   2     -26.376 -47.555  24.799  0.00  0.00    +0.014 C 
ATOM     88  CD2 LEU A   2     -25.548 -47.222  27.137  0.00  0.00    +0.014 C 
ENDBRANCH  85  86
ENDBRANCH  67  85
ENDBRANCH  60  67
ENDBRANCH  56  63
ENDBRANCH  55  58
BRANCH  55  89
ATOM     89  CB  LEU A   4     -22.498 -40.340  21.122  0.00  0.00    +0.079 C 
BRANCH  89  90
ATOM     90  CG  LEU A   4     -21.276 -39.502  20.760  0.00  0.00    -0.016 C 
ATOM     91  CD1 LEU A   4     -21.533 -38.764  19.458  0.00  0.00    +0.014 C 
ATOM     92  CD2 LEU A   4     -20.945 -38.517  21.865  0.00  0.00    +0.014 C 
ENDBRANCH  89  90
ENDBRANCH  55  89
ENDBRANCH  51  55
ENDBRANCH  50  53
BRANCH  50  93
ATOM     93  CB  LEU A   5     -23.354 -42.841  26.193  0.00  0.00    +0.079 C 
BRANCH  93  94
ATOM     94  CG  LEU A   5     -24.662 -42.433  26.857  0.00  0.00    -0.016 C 
ATOM     95  CD1 LEU A   5     -24.766 -40.920  26.871  0.00  0.00    +0.014 C 
ATOM     96  CD2 LEU A   5     -25.850 -43.041  26.128  0.00  0.00    +0.014 C 
ENDBRANCH  93  94
ENDBRANCH  50  93
ENDBRANCH   1  50
TORSDOF 35
ENDMDL
