MODEL 1
REMARK VINA RESULT:    -9.006      0.000      0.000
REMARK INTER + INTRA:         -33.926
REMARK INTER:                 -27.695
REMARK INTRA:                  -6.230
REMARK UNBOUND:                -6.230
REMARK  Name = /mnt/hpc/home/25menglei/25wenshaohua/MD/yzy/docking/dc/peptides/pdb/llhlpkrtt.pdb
REMARK  46 active torsions:
REMARK  status: ('A' for Active; 'I' for Inactive)
REMARK    1  A    between atoms: N_1  and  CA_2
REMARK    2  A    between atoms: CA_2  and  C_3
REMARK    3  A    between atoms: CA_2  and  CB_5
REMARK    4  A    between atoms: CB_5  and  CG_6
REMARK    5  A    between atoms: CG_6  and  CD1_7
REMARK    6  A    between atoms: CG_6  and  CD2_8
REMARK    7  A    between atoms: N_9  and  CA_10
REMARK    8  A    between atoms: CA_10  and  C_11
REMARK    9  A    between atoms: CA_10  and  CB_13
REMARK   10  A    between atoms: CB_13  and  CG_14
REMARK   11  A    between atoms: CG_14  and  CD2_15
REMARK   12  A    between atoms: CG_14  and  CD1_16
REMARK   13  A    between atoms: N_17  and  CA_18
REMARK   14  A    between atoms: CA_18  and  C_19
REMARK   15  A    between atoms: CA_18  and  CB_21
REMARK   16  A    between atoms: CB_21  and  CG_22
REMARK   17  A    between atoms: N_27  and  CA_28
REMARK   18  A    between atoms: CA_28  and  C_29
REMARK   19  A    between atoms: CA_28  and  CB_31
REMARK   20  A    between atoms: CB_31  and  CG_32
REMARK   21  A    between atoms: CG_32  and  CD1_33
REMARK   22  A    between atoms: CG_32  and  CD2_34
REMARK   23  A    between atoms: CA_36  and  C_37
REMARK   24  A    between atoms: N_42  and  CA_43
REMARK   25  A    between atoms: CA_43  and  C_44
REMARK   26  A    between atoms: CA_43  and  CB_46
REMARK   27  A    between atoms: CB_46  and  CG_47
REMARK   28  A    between atoms: CG_47  and  CD_48
REMARK   29  A    between atoms: CD_48  and  CE_49
REMARK   30  A    between atoms: CE_49  and  NZ_50
REMARK   31  A    between atoms: N_51  and  CA_52
REMARK   32  A    between atoms: CA_52  and  C_53
REMARK   33  A    between atoms: CA_52  and  CB_55
REMARK   34  A    between atoms: CB_55  and  CG_56
REMARK   35  A    between atoms: CG_56  and  CD_57
REMARK   36  A    between atoms: CD_57  and  NE_58
REMARK   37  A    between atoms: N_62  and  CA_63
REMARK   38  A    between atoms: CA_63  and  C_64
REMARK   39  A    between atoms: CA_63  and  CB_66
REMARK   40  A    between atoms: CB_66  and  OG1_67
REMARK   41  A    between atoms: CB_66  and  CG2_68
REMARK   42  A    between atoms: N_69  and  CA_70
REMARK   43  A    between atoms: CA_70  and  C_71
REMARK   44  A    between atoms: CA_70  and  CB_73
REMARK   45  A    between atoms: CB_73  and  OG1_74
REMARK   46  A    between atoms: CB_73  and  CG2_75
REMARK                            x       y       z     vdW  Elec       q    Type
REMARK                         _______ _______ _______ _____ _____    ______ ____
ROOT
ATOM      1  C   PRO A   5     -19.396 -42.133  25.932  0.00  0.00    +0.169 C 
ATOM      2  O   PRO A   5     -20.148 -41.330  26.491  0.00  0.00    -0.375 OA
ATOM      3  N   LYS A   6     -18.345 -42.717  26.520  0.00  0.00    -0.292 N 
ATOM      4  H   LYS A   6     -17.781 -43.340  26.007  0.00  0.00    +0.195 HD
ENDROOT
BRANCH   1   8
ATOM      5  C   LEU A   4     -21.077 -44.498  24.766  0.00  0.00    +0.171 C 
ATOM      6  O   LEU A   4     -20.184 -45.110  25.355  0.00  0.00    -0.374 OA
ATOM      7  N   PRO A   5     -20.894 -43.243  24.309  0.00  0.00    -0.296 N 
ATOM      8  CA  PRO A   5     -19.634 -42.528  24.476  0.00  0.00    +0.217 C 
ATOM      9  CB  PRO A   5     -19.803 -41.295  23.588  0.00  0.00    +0.084 C 
ATOM     10  CG  PRO A   5     -21.295 -41.096  23.501  0.00  0.00    +0.049 C 
ATOM     11  CD  PRO A   5     -21.894 -42.474  23.570  0.00  0.00    +0.147 C 
BRANCH   5  12
ATOM     12  CA  LEU A   4     -22.446 -45.146  24.567  0.00  0.00    +0.215 C 
BRANCH  12  15
ATOM     13  C   HIS A   3     -23.235 -46.387  22.652  0.00  0.00    +0.171 C 
ATOM     14  O   HIS A   3     -24.179 -45.614  22.472  0.00  0.00    -0.375 OA
ATOM     15  N   LEU A   4     -22.365 -46.255  23.620  0.00  0.00    -0.292 N 
ATOM     16  H   LEU A   4     -21.640 -46.916  23.711  0.00  0.00    +0.195 HD
BRANCH  13  17
ATOM     17  CA  HIS A   3     -23.036 -47.611  21.763  0.00  0.00    +0.229 C 
BRANCH  17  20
ATOM     18  C   LEU A   2     -22.586 -49.590  23.112  0.00  0.00    +0.169 C 
ATOM     19  O   LEU A   2     -21.381 -49.363  23.132  0.00  0.00    -0.375 OA
ATOM     20  N   HIS A   3     -23.451 -48.813  22.482  0.00  0.00    -0.290 N 
ATOM     21  H   HIS A   3     -24.406 -49.052  22.498  0.00  0.00    +0.196 HD
BRANCH  18  22
ATOM     22  CA  LEU A   2     -23.166 -50.801  23.835  0.00  0.00    +0.215 C 
BRANCH  22  25
ATOM     23  C   LEU A   1     -24.242 -52.179  22.111  0.00  0.00    +0.158 C 
ATOM     24  O   LEU A   1     -25.221 -51.437  22.067  0.00  0.00    -0.370 OA
ATOM     25  N   LEU A   2     -23.213 -51.950  22.940  0.00  0.00    -0.290 N 
ATOM     26  H   LEU A   2     -22.459 -52.583  22.944  0.00  0.00    +0.197 HD
BRANCH  23  27
ATOM     27  CA  LEU A   1     -24.165 -53.403  21.209  0.00  0.00    +0.189 C 
BRANCH  27  28
ATOM     28  N   LEU A   1     -23.054 -53.254  20.252  0.00  0.00    +0.361 NA
ATOM     29  H   LEU A   1     -22.390 -52.566  20.606  0.00  0.00    +0.133 HD
ATOM     30  H   LEU A   1     -23.420 -52.941  19.353  0.00  0.00    +0.133 HD
ATOM     31  H   LEU A   1     -22.585 -54.151  20.135  0.00  0.00    +0.133 HD
ATOM     32  H   LEU A   1     -24.041 -53.077  20.065  0.00  0.00    +0.133 HD
ENDBRANCH  27  28
BRANCH  27  33
ATOM     33  CB  LEU A   1     -23.980 -54.678  22.036  0.00  0.00    +0.078 C 
BRANCH  33  34
ATOM     34  CG  LEU A   1     -25.269 -55.433  22.354  0.00  0.00    -0.014 C 
ATOM     35  CD1 LEU A   1     -25.678 -55.189  23.796  0.00  0.00    +0.016 C 
ATOM     36  CD2 LEU A   1     -26.405 -55.048  21.413  0.00  0.00    +0.016 C 
ENDBRANCH  33  34
ENDBRANCH  27  33
ENDBRANCH  23  27
ENDBRANCH  22  25
BRANCH  22  37
ATOM     37  CB  LEU A   2     -22.328 -51.121  25.064  0.00  0.00    +0.079 C 
BRANCH  37  38
ATOM     38  CG  LEU A   2     -23.101 -51.779  26.208  0.00  0.00    -0.016 C 
ATOM     39  CD2 LEU A   2     -24.520 -51.235  26.292  0.00  0.00    +0.014 C 
ATOM     40  CD1 LEU A   2     -23.128 -53.291  26.024  0.00  0.00    +0.014 C 
ENDBRANCH  37  38
ENDBRANCH  22  37
ENDBRANCH  18  22
ENDBRANCH  17  20
BRANCH  17  41
ATOM     41  CB  HIS A   3     -23.836 -47.473  20.470  0.00  0.00    +0.168 C 
BRANCH  41  42
ATOM     42  CG  HIS A   3     -23.999 -48.783  19.760  0.00  0.00    -0.008 A 
ATOM     43  ND1 HIS A   3     -25.219 -49.372  19.527  0.00  0.00    -0.334 N 
ATOM     44  CD2 HIS A   3     -23.071 -49.625  19.241  0.00  0.00    +0.152 A 
ATOM     45  CE1 HIS A   3     -25.014 -50.517  18.885  0.00  0.00    +0.182 A 
ATOM     46  NE2 HIS A   3     -23.720 -50.696  18.687  0.00  0.00    -0.280 NA
ATOM     47  H   HIS A   3     -26.094 -49.008  19.791  0.00  0.00    +0.189 HD
ENDBRANCH  41  42
ENDBRANCH  17  41
ENDBRANCH  13  17
ENDBRANCH  12  15
BRANCH  12  48
ATOM     48  CB  LEU A   4     -23.007 -45.625  25.913  0.00  0.00    +0.079 C 
BRANCH  48  49
ATOM     49  CG  LEU A   4     -24.538 -45.727  25.984  0.00  0.00    -0.016 C 
ATOM     50  CD1 LEU A   4     -24.990 -47.183  25.907  0.00  0.00    +0.014 C 
ATOM     51  CD2 LEU A   4     -25.054 -45.108  27.288  0.00  0.00    +0.014 C 
ENDBRANCH  48  49
ENDBRANCH  12  48
ENDBRANCH   5  12
ENDBRANCH   1   8
BRANCH   3  52
ATOM     52  CA  LYS A   6     -18.031 -42.435  27.922  0.00  0.00    +0.213 C 
BRANCH  52  53
ATOM     53  C   LYS A   6     -16.795 -43.195  28.384  0.00  0.00    +0.168 C 
ATOM     54  O   LYS A   6     -16.688 -43.558  29.552  0.00  0.00    -0.376 OA
ATOM     55  N   ARG A   7     -15.865 -43.460  27.456  0.00  0.00    -0.292 N 
ATOM     56  H   ARG A   7     -16.005 -43.142  26.536  0.00  0.00    +0.195 HD
BRANCH  55  57
ATOM     57  CA  ARG A   7     -14.647 -44.211  27.770  0.00  0.00    +0.215 C 
BRANCH  57  58
ATOM     58  C   ARG A   7     -13.746 -43.421  28.701  0.00  0.00    +0.170 C 
ATOM     59  O   ARG A   7     -13.023 -42.533  28.260  0.00  0.00    -0.375 OA
ATOM     60  N   THR A   8     -13.787 -43.781  29.997  0.00  0.00    -0.284 N 
ATOM     61  H   THR A   8     -14.395 -44.504  30.274  0.00  0.00    +0.198 HD
BRANCH  60  62
ATOM     62  CA  THR A   8     -12.953 -43.127  31.005  0.00  0.00    +0.250 C 
BRANCH  62  63
ATOM     63  C   THR A   8     -11.629 -43.859  31.141  0.00  0.00    +0.176 C 
ATOM     64  O   THR A   8     -11.585 -45.014  31.561  0.00  0.00    -0.373 OA
ATOM     65  N   THR A   9     -10.543 -43.160  30.772  0.00  0.00    -0.296 N 
ATOM     66  H   THR A   9     -10.652 -42.239  30.443  0.00  0.00    +0.194 HD
BRANCH  65  67
ATOM     67  CA  THR A   9      -9.206 -43.736  30.848  0.00  0.00    +0.186 C 
BRANCH  67  68
ATOM     68  C   THR A   9      -8.564 -43.390  32.192  0.00  0.00    +0.055 C 
ATOM     69  OXT THR A   9      -9.032 -42.470  32.855  0.00  0.00    -0.559 OA
ATOM     70  O   THR A   9      -7.591 -44.084  32.611  0.00  0.00    -0.559 OA
ENDBRANCH  67  68
BRANCH  67  71
ATOM     71  CB  THR A   9      -8.324 -43.227  29.696  0.00  0.00    +0.135 C 
ATOM     72  CG2 THR A   9      -9.153 -42.582  28.602  0.00  0.00    +0.084 C 
BRANCH  71  73
ATOM     73  OG1 THR A   9      -7.396 -42.273  30.201  0.00  0.00    -0.447 OA
ATOM     74  H   THR A   9      -7.865 -41.452  30.423  0.00  0.00    +0.237 HD
ENDBRANCH  71  73
ENDBRANCH  67  71
ENDBRANCH  65  67
ENDBRANCH  62  63
BRANCH  62  75
ATOM     75  CB  THR A   8     -13.642 -43.109  32.371  0.00  0.00    +0.150 C 
ATOM     76  CG2 THR A   8     -14.780 -42.113  32.397  0.00  0.00    +0.087 C 
BRANCH  75  77
ATOM     77  OG1 THR A   8     -14.141 -44.406  32.684  0.00  0.00    -0.445 OA
ATOM     78  H   THR A   8     -13.631 -45.074  32.199  0.00  0.00    +0.238 HD
ENDBRANCH  75  77
ENDBRANCH  62  75
ENDBRANCH  60  62
ENDBRANCH  57  58
BRANCH  57  79
ATOM     79  CB  ARG A   7     -13.914 -44.559  26.481  0.00  0.00    +0.089 C 
BRANCH  79  80
ATOM     80  CG  ARG A   7     -13.825 -43.417  25.492  0.00  0.00    +0.073 C 
BRANCH  80  81
ATOM     81  CD  ARG A   7     -14.737 -43.633  24.286  0.00  0.00    +0.228 C 
BRANCH  81  82
ATOM     82  NE  ARG A   7     -15.029 -42.392  23.563  0.00  0.00    -0.331 N 
ATOM     83  CZ  ARG A   7     -16.053 -42.235  22.729  0.00  0.00    +0.115 C 
ATOM     84  NH1 ARG A   7     -16.887 -43.240  22.483  0.00  0.00    -0.359 NA
ATOM     85  NH2 ARG A   7     -16.253 -41.085  22.130  0.00  0.00    -0.317 N 
ATOM     86  H   ARG A   7     -14.429 -41.624  23.704  0.00  0.00    +0.298 HD
ATOM     87  H   ARG A   7     -17.642 -43.113  21.864  0.00  0.00    +0.232 HD
ATOM     88  H   ARG A   7     -16.750 -44.112  22.920  0.00  0.00    +0.232 HD
ATOM     89  H   ARG A   7     -16.539 -43.183  21.564  0.00  0.00    +0.232 HD
ATOM     90  H   ARG A   7     -17.013 -40.977  21.514  0.00  0.00    +0.294 HD
ATOM     91  H   ARG A   7     -15.643 -40.331  22.297  0.00  0.00    +0.294 HD
ENDBRANCH  81  82
ENDBRANCH  80  81
ENDBRANCH  79  80
ENDBRANCH  57  79
ENDBRANCH  55  57
ENDBRANCH  52  53
BRANCH  52  92
ATOM     92  CB  LYS A   6     -19.224 -42.778  28.803  0.00  0.00    +0.078 C 
BRANCH  92  93
ATOM     93  CG  LYS A   6     -19.910 -44.059  28.408  0.00  0.00    +0.025 C 
BRANCH  93  94
ATOM     94  CD  LYS A   6     -21.426 -43.897  28.344  0.00  0.00    +0.033 C 
BRANCH  94  95
ATOM     95  CE  LYS A   6     -22.141 -44.673  29.447  0.00  0.00    +0.103 C 
BRANCH  95  96
ATOM     96  NZ  LYS A   6     -22.053 -43.984  30.750  0.00  0.00    +0.353 NA
ATOM     97  H   LYS A   6     -22.991 -43.755  31.077  0.00  0.00    +0.125 HD
ATOM     98  H   LYS A   6     -21.511 -43.126  30.644  0.00  0.00    +0.125 HD
ATOM     99  H   LYS A   6     -21.595 -44.594  31.427  0.00  0.00    +0.125 HD
ATOM    100  H   LYS A   6     -23.028 -43.752  30.938  0.00  0.00    +0.125 HD
ENDBRANCH  95  96
ENDBRANCH  94  95
ENDBRANCH  93  94
ENDBRANCH  92  93
ENDBRANCH  52  92
ENDBRANCH   3  52
TORSDOF 38
ENDMDL
