MODEL 1
REMARK VINA RESULT:    -8.942      0.000      0.000
REMARK INTER + INTRA:         -27.964
REMARK INTER:                 -23.578
REMARK INTRA:                  -4.387
REMARK UNBOUND:                -4.387
REMARK SMILES CC(C)C[C@H](NC(=O)[C@H](CCCNC(=N)N)NC(=O)[C@H](CC(C)C)NC(=O)[C@@H]1CCCN1C(=O)[C@H](Cc1c[nH]cn1)NC(=O)[C@H](CC(C)C)NC(=O)[C@@H](N)CC(C)C)C(=O)O
REMARK SMILES IDX 32 1 31 2 30 3 29 4 28 5 33 6 34 7 35 8 42 9 43 10 44 11
REMARK SMILES IDX 45 13 50 14 51 15 52 16 53 18 54 19 55 22 56 23 57 24 58 25
REMARK SMILES IDX 46 26 47 27 48 28 49 29 36 30 37 31 38 32 41 33 39 34 40 35
REMARK SMILES IDX 26 37 27 38 25 39 20 41 21 42 22 43 23 44 24 45 18 46 19 47
REMARK SMILES IDX 17 48 9 50 10 51 11 52 12 53 13 54 14 55 15 56 16 57 7 62
REMARK SMILES IDX 8 63 6 64 5 66 4 67 2 68 1 69 3 70 59 71 60 72 61 73
REMARK H PARENT 42 12 50 17 54 20 54 21 39 36 25 40 17 49 13 58 15 59 16 60
REMARK H PARENT 16 61 6 65 61 74
ROOT
ATOM      1  N   UNL     1     -19.924 -42.815  27.254  1.00  0.00    -0.329 N 
ATOM      2  C   UNL     1     -20.247 -43.671  28.388  1.00  0.00     0.120 C 
ATOM      3  C   UNL     1     -19.044 -43.627  29.317  1.00  0.00     0.024 C 
ATOM      4  C   UNL     1     -18.316 -42.352  28.924  1.00  0.00     0.037 C 
ATOM      5  C   UNL     1     -18.624 -42.167  27.438  1.00  0.00     0.174 C 
ENDROOT
BRANCH   1   6
ATOM      6  C   UNL     1     -20.917 -42.564  26.333  1.00  0.00     0.246 C 
ATOM      7  O   UNL     1     -21.204 -41.382  26.080  1.00  0.00    -0.272 OA
BRANCH   6   8
ATOM      8  C   UNL     1     -21.600 -43.658  25.468  1.00  0.00     0.177 C 
BRANCH   8   9
ATOM      9  N   UNL     1     -22.127 -43.051  24.237  1.00  0.00    -0.342 N 
ATOM     10  C   UNL     1     -23.455 -42.732  24.054  1.00  0.00     0.243 C 
ATOM     11  O   UNL     1     -24.337 -43.031  24.853  1.00  0.00    -0.273 OA
ATOM     12  H   UNL     1     -21.493 -42.379  23.825  1.00  0.00     0.164 HD
BRANCH  10  13
ATOM     13  C   UNL     1     -23.789 -42.129  22.665  1.00  0.00     0.171 C 
BRANCH  13  14
ATOM     14  N   UNL     1     -22.775 -41.157  22.257  1.00  0.00    -0.343 N 
ATOM     15  C   UNL     1     -23.115 -40.040  21.518  1.00  0.00     0.237 C 
ATOM     16  O   UNL     1     -24.231 -39.884  21.025  1.00  0.00    -0.273 OA
ATOM     17  H   UNL     1     -21.905 -41.151  22.772  1.00  0.00     0.164 HD
BRANCH  15  18
ATOM     18  C   UNL     1     -21.997 -38.986  21.364  1.00  0.00     0.141 C 
BRANCH  18  19
ATOM     19  N   UNL     1     -22.567 -37.633  21.561  1.00  0.00    -0.320 NA
ATOM     20  H   UNL     1     -21.845 -37.007  21.943  1.00  0.00     0.119 HD
ATOM     21  H   UNL     1     -22.893 -37.225  20.691  1.00  0.00     0.119 HD
ENDBRANCH  18  19
BRANCH  18  22
ATOM     22  C   UNL     1     -20.828 -39.181  22.342  1.00  0.00     0.032 C 
BRANCH  22  23
ATOM     23  C   UNL     1     -19.530 -39.802  21.778  1.00  0.00    -0.015 C 
ATOM     24  C   UNL     1     -19.277 -41.234  22.242  1.00  0.00     0.007 C 
ATOM     25  C   UNL     1     -19.448 -39.715  20.253  1.00  0.00     0.007 C 
ENDBRANCH  22  23
ENDBRANCH  18  22
ENDBRANCH  15  18
ENDBRANCH  13  14
BRANCH  13  26
ATOM     26  C   UNL     1     -23.893 -43.308  21.679  1.00  0.00     0.038 C 
BRANCH  26  27
ATOM     27  C   UNL     1     -22.619 -44.125  21.392  1.00  0.00    -0.015 C 
ATOM     28  C   UNL     1     -22.885 -45.617  21.217  1.00  0.00     0.007 C 
ATOM     29  C   UNL     1     -21.821 -43.566  20.216  1.00  0.00     0.007 C 
ENDBRANCH  26  27
ENDBRANCH  13  26
ENDBRANCH  10  13
ENDBRANCH   8   9
BRANCH   8  30
ATOM     30  C   UNL     1     -20.938 -45.017  25.263  1.00  0.00     0.093 C 
BRANCH  30  31
ATOM     31  C   UNL     1     -21.886 -46.118  24.893  1.00  0.00     0.061 A 
ATOM     32  C   UNL     1     -23.206 -46.235  25.274  1.00  0.00     0.107 A 
ATOM     33  N   UNL     1     -21.513 -47.213  24.140  1.00  0.00    -0.242 NA
ATOM     34  N   UNL     1     -23.630 -47.431  24.764  1.00  0.00    -0.351 N 
ATOM     35  C   UNL     1     -22.573 -47.989  24.103  1.00  0.00     0.196 A 
ATOM     36  H   UNL     1     -24.541 -47.846  24.884  1.00  0.00     0.167 HD
ENDBRANCH  30  31
ENDBRANCH   8  30
ENDBRANCH   6   8
ENDBRANCH   1   6
BRANCH   5  37
ATOM     37  C   UNL     1     -17.562 -42.810  26.513  1.00  0.00     0.243 C 
ATOM     38  O   UNL     1     -17.860 -43.334  25.438  1.00  0.00    -0.273 OA
ATOM     39  N   UNL     1     -16.268 -42.735  26.959  1.00  0.00    -0.343 N 
ATOM     40  H   UNL     1     -16.130 -42.567  27.954  1.00  0.00     0.164 HD
BRANCH  39  41
ATOM     41  C   UNL     1     -15.138 -43.383  26.302  1.00  0.00     0.171 C 
BRANCH  41  42
ATOM     42  C   UNL     1     -14.427 -42.491  25.272  1.00  0.00     0.038 C 
BRANCH  42  43
ATOM     43  C   UNL     1     -14.610 -42.840  23.780  1.00  0.00    -0.015 C 
ATOM     44  C   UNL     1     -14.868 -44.343  23.641  1.00  0.00     0.007 C 
ATOM     45  C   UNL     1     -15.739 -42.068  23.104  1.00  0.00     0.007 C 
ENDBRANCH  42  43
ENDBRANCH  41  42
BRANCH  41  46
ATOM     46  C   UNL     1     -14.217 -43.916  27.429  1.00  0.00     0.243 C 
ATOM     47  O   UNL     1     -14.482 -44.956  28.039  1.00  0.00    -0.273 OA
ATOM     48  N   UNL     1     -13.058 -43.204  27.651  1.00  0.00    -0.343 N 
ATOM     49  H   UNL     1     -13.091 -42.215  27.431  1.00  0.00     0.164 HD
BRANCH  48  50
ATOM     50  C   UNL     1     -12.181 -43.577  28.758  1.00  0.00     0.171 C 
BRANCH  50  51
ATOM     51  C   UNL     1     -10.727 -43.133  28.523  1.00  0.00     0.037 C 
BRANCH  51  52
ATOM     52  C   UNL     1      -9.616 -44.095  28.963  1.00  0.00     0.024 C 
BRANCH  52  53
ATOM     53  C   UNL     1      -9.602 -44.398  30.460  1.00  0.00     0.116 C 
BRANCH  53  54
ATOM     54  N   UNL     1      -9.996 -45.780  30.704  1.00  0.00    -0.357 N 
ATOM     55  C   UNL     1      -9.068 -46.745  30.910  1.00  0.00     0.185 C 
ATOM     56  N   UNL     1      -7.808 -46.553  31.034  1.00  0.00    -0.270 NA
ATOM     57  N   UNL     1      -9.645 -47.960  30.985  1.00  0.00    -0.370 N 
ATOM     58  H   UNL     1     -10.713 -46.086  30.058  1.00  0.00     0.163 HD
ATOM     59  H   UNL     1      -7.335 -47.447  31.164  1.00  0.00     0.191 HD
ATOM     60  H   UNL     1     -10.551 -47.926  31.441  1.00  0.00     0.159 HD
ATOM     61  H   UNL     1      -9.062 -48.668  31.412  1.00  0.00     0.159 HD
ENDBRANCH  53  54
ENDBRANCH  52  53
ENDBRANCH  51  52
ENDBRANCH  50  51
BRANCH  50  62
ATOM     62  C   UNL     1     -12.766 -43.080  30.098  1.00  0.00     0.243 C 
ATOM     63  O   UNL     1     -12.713 -41.902  30.450  1.00  0.00    -0.273 OA
ATOM     64  N   UNL     1     -13.322 -44.071  30.880  1.00  0.00    -0.341 N 
ATOM     65  H   UNL     1     -13.609 -44.915  30.400  1.00  0.00     0.164 HD
BRANCH  64  66
ATOM     66  C   UNL     1     -14.057 -43.716  32.095  1.00  0.00     0.192 C 
BRANCH  66  67
ATOM     67  C   UNL     1     -15.346 -42.939  31.762  1.00  0.00     0.040 C 
BRANCH  67  68
ATOM     68  C   UNL     1     -15.500 -41.530  32.380  1.00  0.00    -0.015 C 
ATOM     69  C   UNL     1     -16.935 -41.037  32.151  1.00  0.00     0.007 C 
ATOM     70  C   UNL     1     -15.177 -41.471  33.873  1.00  0.00     0.007 C 
ENDBRANCH  67  68
ENDBRANCH  66  67
BRANCH  66  71
ATOM     71  C   UNL     1     -14.389 -44.892  33.029  1.00  0.00     0.326 C 
ATOM     72  O   UNL     1     -14.859 -44.790  34.153  1.00  0.00    -0.250 OA
BRANCH  71  73
ATOM     73  O   UNL     1     -14.201 -46.111  32.490  1.00  0.00    -0.480 OA
ATOM     74  H   UNL     1     -14.779 -46.114  31.699  1.00  0.00     0.296 HD
ENDBRANCH  71  73
ENDBRANCH  66  71
ENDBRANCH  64  66
ENDBRANCH  50  62
ENDBRANCH  48  50
ENDBRANCH  41  46
ENDBRANCH  39  41
ENDBRANCH   5  37
TORSDOF 29
ENDMDL
