MODEL 1
REMARK VINA RESULT:    -9.028      0.000      0.000
REMARK INTER + INTRA:         -32.319
REMARK INTER:                 -27.764
REMARK INTRA:                  -4.555
REMARK UNBOUND:                -4.555
REMARK  Name = /mnt/hpc/home/25menglei/25wenshaohua/MD/yzy/docking/dc/peptides/pdb/yhhllcrr.pdb
REMARK  41 active torsions:
REMARK  status: ('A' for Active; 'I' for Inactive)
REMARK    1  A    between atoms: N_1  and  CA_2
REMARK    2  A    between atoms: CA_2  and  C_3
REMARK    3  A    between atoms: CA_2  and  CB_5
REMARK    4  A    between atoms: CB_5  and  CG_6
REMARK    5  A    between atoms: CZ_11  and  OH_12
REMARK    6  A    between atoms: N_13  and  CA_14
REMARK    7  A    between atoms: CA_14  and  C_15
REMARK    8  A    between atoms: CA_14  and  CB_17
REMARK    9  A    between atoms: CB_17  and  CG_18
REMARK   10  A    between atoms: N_23  and  CA_24
REMARK   11  A    between atoms: CA_24  and  C_25
REMARK   12  A    between atoms: CA_24  and  CB_27
REMARK   13  A    between atoms: CB_27  and  CG_28
REMARK   14  A    between atoms: N_33  and  CA_34
REMARK   15  A    between atoms: CA_34  and  C_35
REMARK   16  A    between atoms: CA_34  and  CB_37
REMARK   17  A    between atoms: CB_37  and  CG_38
REMARK   18  A    between atoms: CG_38  and  CD1_39
REMARK   19  A    between atoms: CG_38  and  CD2_40
REMARK   20  A    between atoms: N_41  and  CA_42
REMARK   21  A    between atoms: CA_42  and  C_43
REMARK   22  A    between atoms: CA_42  and  CB_45
REMARK   23  A    between atoms: CB_45  and  CG_46
REMARK   24  A    between atoms: CG_46  and  CD1_47
REMARK   25  A    between atoms: CG_46  and  CD2_48
REMARK   26  A    between atoms: N_49  and  CA_50
REMARK   27  A    between atoms: CA_50  and  C_51
REMARK   28  A    between atoms: CA_50  and  CB_53
REMARK   29  A    between atoms: CB_53  and  SG_54
REMARK   30  A    between atoms: N_55  and  CA_56
REMARK   31  A    between atoms: CA_56  and  C_57
REMARK   32  A    between atoms: CA_56  and  CB_59
REMARK   33  A    between atoms: CB_59  and  CG_60
REMARK   34  A    between atoms: CG_60  and  CD_61
REMARK   35  A    between atoms: CD_61  and  NE_62
REMARK   36  A    between atoms: N_66  and  CA_67
REMARK   37  A    between atoms: CA_67  and  C_68
REMARK   38  A    between atoms: CA_67  and  CB_70
REMARK   39  A    between atoms: CB_70  and  CG_71
REMARK   40  A    between atoms: CG_71  and  CD_72
REMARK   41  A    between atoms: CD_72  and  NE_73
REMARK                            x       y       z     vdW  Elec       q    Type
REMARK                         _______ _______ _______ _____ _____    ______ ____
ROOT
ATOM      1  C   LEU A   4     -20.838 -40.229  23.159  0.00  0.00    +0.168 C 
ATOM      2  O   LEU A   4     -21.560 -39.730  24.015  0.00  0.00    -0.375 OA
ATOM      3  N   LEU A   5     -19.922 -41.109  23.446  0.00  0.00    -0.292 N 
ATOM      4  H   LEU A   5     -19.354 -41.471  22.727  0.00  0.00    +0.195 HD
ENDROOT
BRANCH   3   5
ATOM      5  CA  LEU A   5     -19.726 -41.568  24.827  0.00  0.00    +0.213 C 
BRANCH   5   6
ATOM      6  C   LEU A   5     -18.691 -42.701  24.887  0.00  0.00    +0.169 C 
ATOM      7  O   LEU A   5     -19.040 -43.867  25.015  0.00  0.00    -0.375 OA
ATOM      8  N   CYS A   6     -17.449 -42.374  24.799  0.00  0.00    -0.289 N 
ATOM      9  H   CYS A   6     -17.210 -41.423  24.712  0.00  0.00    +0.196 HD
BRANCH   8  10
ATOM     10  CA  CYS A   6     -16.375 -43.381  24.823  0.00  0.00    +0.228 C 
BRANCH  10  11
ATOM     11  C   CYS A   6     -15.397 -43.126  25.981  0.00  0.00    +0.172 C 
ATOM     12  O   CYS A   6     -15.028 -41.996  26.266  0.00  0.00    -0.375 OA
ATOM     13  N   ARG A   7     -14.982 -44.194  26.628  0.00  0.00    -0.292 N 
ATOM     14  H   ARG A   7     -15.292 -45.085  26.346  0.00  0.00    +0.195 HD
BRANCH  13  15
ATOM     15  CA  ARG A   7     -14.056 -44.072  27.773  0.00  0.00    +0.214 C 
BRANCH  15  16
ATOM     16  C   ARG A   7     -14.823 -43.856  29.086  0.00  0.00    +0.166 C 
ATOM     17  O   ARG A   7     -16.037 -43.716  29.093  0.00  0.00    -0.376 OA
ATOM     18  N   ARG A   8     -14.120 -43.825  30.191  0.00  0.00    -0.306 N 
ATOM     19  H   ARG A   8     -13.143 -43.925  30.139  0.00  0.00    +0.192 HD
BRANCH  18  20
ATOM     20  CA  ARG A   8     -14.751 -43.644  31.509  0.00  0.00    +0.151 C 
BRANCH  20  21
ATOM     21  C   ARG A   8     -15.128 -42.174  31.742  0.00  0.00    +0.046 C 
ATOM     22  O   ARG A   8     -14.224 -41.357  31.970  0.00  0.00    -0.561 OA
ATOM     23  OXT ARG A   8     -16.313 -41.842  31.708  0.00  0.00    -0.561 OA
ENDBRANCH  20  21
BRANCH  20  24
ATOM     24  CB  ARG A   8     -13.784 -44.120  32.614  0.00  0.00    +0.071 C 
BRANCH  24  25
ATOM     25  CG  ARG A   8     -12.427 -44.475  32.035  0.00  0.00    +0.070 C 
BRANCH  25  26
ATOM     26  CD  ARG A   8     -11.392 -43.418  32.410  0.00  0.00    +0.228 C 
BRANCH  26  27
ATOM     27  NE  ARG A   8     -11.944 -42.504  33.414  0.00  0.00    -0.331 N 
ATOM     28  CZ  ARG A   8     -11.193 -41.845  34.290  0.00  0.00    +0.115 C 
ATOM     29  NH2 ARG A   8      -9.882 -41.997  34.300  0.00  0.00    -0.317 N 
ATOM     30  NH1 ARG A   8     -11.761 -41.043  35.166  0.00  0.00    -0.359 NA
ATOM     31  H   ARG A   8     -12.919 -42.371  33.441  0.00  0.00    +0.298 HD
ATOM     32  H   ARG A   8      -9.334 -41.504  34.954  0.00  0.00    +0.294 HD
ATOM     33  H   ARG A   8      -9.451 -42.602  33.654  0.00  0.00    +0.294 HD
ATOM     34  H   ARG A   8     -12.738 -40.926  35.164  0.00  0.00    +0.232 HD
ATOM     35  H   ARG A   8     -11.209 -40.561  35.823  0.00  0.00    +0.232 HD
ATOM     36  H   ARG A   8     -11.118 -41.700  35.519  0.00  0.00    +0.232 HD
ENDBRANCH  26  27
ENDBRANCH  25  26
ENDBRANCH  24  25
ENDBRANCH  20  24
ENDBRANCH  18  20
ENDBRANCH  15  16
BRANCH  15  37
ATOM     37  CB  ARG A   7     -13.115 -42.897  27.507  0.00  0.00    +0.089 C 
BRANCH  37  38
ATOM     38  CG  ARG A   7     -11.729 -43.158  28.051  0.00  0.00    +0.073 C 
BRANCH  38  39
ATOM     39  CD  ARG A   7     -10.931 -41.851  28.129  0.00  0.00    +0.228 C 
BRANCH  39  40
ATOM     40  NE  ARG A   7      -9.939 -41.793  27.053  0.00  0.00    -0.331 N 
ATOM     41  CZ  ARG A   7      -8.619 -41.775  27.267  0.00  0.00    +0.115 C 
ATOM     42  NH1 ARG A   7      -8.141 -41.866  28.489  0.00  0.00    -0.359 NA
ATOM     43  NH2 ARG A   7      -7.793 -41.669  26.250  0.00  0.00    -0.317 N 
ATOM     44  H   ARG A   7     -10.261 -41.766  26.123  0.00  0.00    +0.298 HD
ATOM     45  H   ARG A   7      -7.168 -41.853  28.639  0.00  0.00    +0.232 HD
ATOM     46  H   ARG A   7      -8.757 -41.949  29.254  0.00  0.00    +0.232 HD
ATOM     47  H   ARG A   7      -7.922 -41.074  27.947  0.00  0.00    +0.232 HD
ATOM     48  H   ARG A   7      -6.821 -41.655  26.404  0.00  0.00    +0.294 HD
ATOM     49  H   ARG A   7      -8.147 -41.604  25.333  0.00  0.00    +0.294 HD
ENDBRANCH  39  40
ENDBRANCH  38  39
ENDBRANCH  37  38
ENDBRANCH  15  37
ENDBRANCH  13  15
ENDBRANCH  10  11
BRANCH  10  50
ATOM     50  CB  CYS A   6     -15.638 -43.340  23.480  0.00  0.00    +0.157 C 
BRANCH  50  51
ATOM     51  SG  CYS A   6     -15.784 -41.694  22.720  0.00  0.00    -0.219 S 
ATOM     52  H   CYS A   6     -16.714 -40.965  23.392  0.00  0.00    +0.129 HD
ENDBRANCH  50  51
ENDBRANCH  10  50
ENDBRANCH   8  10
ENDBRANCH   5   6
BRANCH   5  53
ATOM     53  CB  LEU A   5     -21.075 -42.034  25.389  0.00  0.00    +0.079 C 
BRANCH  53  54
ATOM     54  CG  LEU A   5     -21.451 -41.379  26.729  0.00  0.00    -0.016 C 
ATOM     55  CD1 LEU A   5     -22.883 -41.732  27.111  0.00  0.00    +0.014 C 
ATOM     56  CD2 LEU A   5     -20.502 -41.829  27.828  0.00  0.00    +0.014 C 
ENDBRANCH  53  54
ENDBRANCH   5  53
ENDBRANCH   3   5
BRANCH   1  57
ATOM     57  CA  LEU A   4     -20.982 -39.844  21.689  0.00  0.00    +0.213 C 
BRANCH  57  60
ATOM     58  C   HIS A   3     -21.680 -41.495  20.035  0.00  0.00    +0.169 C 
ATOM     59  O   HIS A   3     -20.533 -41.607  19.647  0.00  0.00    -0.375 OA
ATOM     60  N   LEU A   4     -21.996 -40.668  21.011  0.00  0.00    -0.292 N 
ATOM     61  H   LEU A   4     -22.936 -40.599  21.293  0.00  0.00    +0.195 HD
BRANCH  58  62
ATOM     62  CA  HIS A   3     -22.818 -42.312  19.406  0.00  0.00    +0.220 C 
BRANCH  62  65
ATOM     63  C   HIS A   2     -22.435 -44.598  20.166  0.00  0.00    +0.171 C 
ATOM     64  O   HIS A   2     -21.462 -44.702  19.438  0.00  0.00    -0.375 OA
ATOM     65  N   HIS A   3     -23.152 -43.488  20.225  0.00  0.00    -0.291 N 
ATOM     66  H   HIS A   3     -23.928 -43.448  20.830  0.00  0.00    +0.195 HD
BRANCH  63  67
ATOM     67  CA  HIS A   2     -22.866 -45.758  21.066  0.00  0.00    +0.230 C 
BRANCH  67  70
ATOM     68  C   TYR A   1     -22.888 -45.297  23.443  0.00  0.00    +0.160 C 
ATOM     69  O   TYR A   1     -21.759 -45.766  23.564  0.00  0.00    -0.369 OA
ATOM     70  N   HIS A   2     -23.489 -45.252  22.300  0.00  0.00    -0.287 N 
ATOM     71  H   HIS A   2     -24.394 -44.866  22.252  0.00  0.00    +0.198 HD
BRANCH  68  72
ATOM     72  CA  TYR A   1     -23.628 -44.733  24.659  0.00  0.00    +0.198 C 
BRANCH  72  73
ATOM     73  N   TYR A   1     -24.982 -44.261  24.282  0.00  0.00    +0.362 NA
ATOM     74  H   TYR A   1     -25.642 -44.498  25.022  0.00  0.00    +0.134 HD
ATOM     75  H   TYR A   1     -25.269 -44.711  23.413  0.00  0.00    +0.134 HD
ATOM     76  H   TYR A   1     -24.966 -43.249  24.152  0.00  0.00    +0.134 HD
ATOM     77  H   TYR A   1     -25.783 -44.227  23.652  0.00  0.00    +0.134 HD
ENDBRANCH  72  73
BRANCH  72  78
ATOM     78  CB  TYR A   1     -23.755 -45.832  25.701  0.00  0.00    +0.129 C 
BRANCH  78  79
ATOM     79  CG  TYR A   1     -23.172 -45.392  27.014  0.00  0.00    -0.064 A 
ATOM     80  CD2 TYR A   1     -21.792 -45.318  27.179  0.00  0.00    +0.029 A 
ATOM     81  CD1 TYR A   1     -24.005 -45.072  28.083  0.00  0.00    +0.029 A 
ATOM     82  CE2 TYR A   1     -21.257 -44.905  28.394  0.00  0.00    +0.079 A 
ATOM     83  CE1 TYR A   1     -23.472 -44.661  29.301  0.00  0.00    +0.079 A 
ATOM     84  CZ  TYR A   1     -22.105 -44.583  29.445  0.00  0.00    +0.033 A 
BRANCH  84  85
ATOM     85  OH  TYR A   1     -21.568 -44.177  30.646  0.00  0.00    -0.565 OA
ATOM     86  H   TYR A   1     -21.889 -43.403  31.065  0.00  0.00    +0.334 HD
ENDBRANCH  84  85
ENDBRANCH  78  79
ENDBRANCH  72  78
ENDBRANCH  68  72
ENDBRANCH  67  70
BRANCH  67  87
ATOM     87  CB  HIS A   2     -23.872 -46.645  20.328  0.00  0.00    +0.168 C 
BRANCH  87  88
ATOM     88  CG  HIS A   2     -23.409 -48.066  20.235  0.00  0.00    -0.008 A 
ATOM     89  ND1 HIS A   2     -23.474 -48.812  19.081  0.00  0.00    -0.334 N 
ATOM     90  CD2 HIS A   2     -22.854 -48.871  21.185  0.00  0.00    +0.152 A 
ATOM     91  CE1 HIS A   2     -22.987 -50.020  19.344  0.00  0.00    +0.182 A 
ATOM     92  NE2 HIS A   2     -22.595 -50.084  20.604  0.00  0.00    -0.280 NA
ATOM     93  H   HIS A   2     -23.820 -48.505  18.213  0.00  0.00    +0.189 HD
ENDBRANCH  87  88
ENDBRANCH  67  87
ENDBRANCH  63  67
ENDBRANCH  62  65
BRANCH  62  94
ATOM     94  CB  HIS A   3     -24.067 -41.443  19.270  0.00  0.00    +0.121 C 
BRANCH  94  95
ATOM     95  CG  HIS A   3     -25.172 -42.186  18.560  0.00  0.00    +0.106 C 
ATOM     96  ND1 HIS A   3     -26.428 -42.376  19.077  0.00  0.00    -0.355 N 
ATOM     97  CD2 HIS A   3     -25.146 -42.794  17.342  0.00  0.00    +0.217 C 
ATOM     98  CE1 HIS A   3     -27.142 -43.073  18.204  0.00  0.00    +0.170 C 
ATOM     99  NE2 HIS A   3     -26.400 -43.350  17.132  0.00  0.00    -0.351 NA
ATOM    100  H   HIS A   3     -26.746 -42.048  19.950  0.00  0.00    +0.174 HD
ENDBRANCH  94  95
ENDBRANCH  62  94
ENDBRANCH  58  62
ENDBRANCH  57  60
BRANCH  57 101
ATOM    101  CB  LEU A   4     -21.405 -38.370  21.581  0.00  0.00    +0.079 C 
BRANCH 101 102
ATOM    102  CG  LEU A   4     -22.251 -38.071  20.345  0.00  0.00    -0.016 C 
ATOM    103  CD1 LEU A   4     -23.315 -37.023  20.676  0.00  0.00    +0.014 C 
ATOM    104  CD2 LEU A   4     -21.335 -37.531  19.228  0.00  0.00    +0.014 C 
ENDBRANCH 101 102
ENDBRANCH  57 101
ENDBRANCH   1  57
TORSDOF 37
ENDMDL
