MODEL 1
REMARK VINA RESULT:    -9.494      0.000      0.000
REMARK INTER + INTRA:         -31.070
REMARK INTER:                 -26.421
REMARK INTRA:                  -4.649
REMARK UNBOUND:                -4.649
REMARK  Name = /mnt/hpc/home/25menglei/25wenshaohua/MD/yzy/docking/dc/peptides/pdb/ylsllqr.pdb
REMARK  38 active torsions:
REMARK  status: ('A' for Active; 'I' for Inactive)
REMARK    1  A    between atoms: N_1  and  CA_2
REMARK    2  A    between atoms: CA_2  and  C_3
REMARK    3  A    between atoms: CA_2  and  CB_5
REMARK    4  A    between atoms: CB_5  and  CG_6
REMARK    5  A    between atoms: CZ_11  and  OH_12
REMARK    6  A    between atoms: N_13  and  CA_14
REMARK    7  A    between atoms: CA_14  and  C_15
REMARK    8  A    between atoms: CA_14  and  CB_17
REMARK    9  A    between atoms: CB_17  and  CG_18
REMARK   10  A    between atoms: CG_18  and  CD2_19
REMARK   11  A    between atoms: CG_18  and  CD1_20
REMARK   12  A    between atoms: N_21  and  CA_22
REMARK   13  A    between atoms: CA_22  and  C_23
REMARK   14  A    between atoms: CA_22  and  CB_25
REMARK   15  A    between atoms: CB_25  and  OG_26
REMARK   16  A    between atoms: N_27  and  CA_28
REMARK   17  A    between atoms: CA_28  and  C_29
REMARK   18  A    between atoms: CA_28  and  CB_31
REMARK   19  A    between atoms: CB_31  and  CG_32
REMARK   20  A    between atoms: CG_32  and  CD1_33
REMARK   21  A    between atoms: CG_32  and  CD2_34
REMARK   22  A    between atoms: N_35  and  CA_36
REMARK   23  A    between atoms: CA_36  and  C_37
REMARK   24  A    between atoms: CA_36  and  CB_39
REMARK   25  A    between atoms: CB_39  and  CG_40
REMARK   26  A    between atoms: CG_40  and  CD2_41
REMARK   27  A    between atoms: CG_40  and  CD1_42
REMARK   28  A    between atoms: N_43  and  CA_44
REMARK   29  A    between atoms: CA_44  and  C_45
REMARK   30  A    between atoms: CA_44  and  CB_47
REMARK   31  A    between atoms: CB_47  and  CG_48
REMARK   32  A    between atoms: CG_48  and  CD_49
REMARK   33  A    between atoms: N_52  and  CA_53
REMARK   34  A    between atoms: CA_53  and  C_54
REMARK   35  A    between atoms: CA_53  and  CB_56
REMARK   36  A    between atoms: CB_56  and  CG_57
REMARK   37  A    between atoms: CG_57  and  CD_58
REMARK   38  A    between atoms: CD_58  and  NE_59
REMARK                            x       y       z     vdW  Elec       q    Type
REMARK                         _______ _______ _______ _____ _____    ______ ____
ROOT
ATOM      1  C   LEU A   4     -17.526 -42.853  27.146  0.00  0.00    +0.168 C 
ATOM      2  O   LEU A   4     -18.115 -43.359  26.194  0.00  0.00    -0.375 OA
ATOM      3  N   LEU A   5     -16.224 -42.757  27.197  0.00  0.00    -0.292 N 
ATOM      4  H   LEU A   5     -15.811 -42.294  27.961  0.00  0.00    +0.195 HD
ENDROOT
BRANCH   3   5
ATOM      5  CA  LEU A   5     -15.364 -43.314  26.158  0.00  0.00    +0.213 C 
BRANCH   5   6
ATOM      6  C   LEU A   5     -13.993 -43.687  26.732  0.00  0.00    +0.168 C 
ATOM      7  O   LEU A   5     -13.542 -44.822  26.601  0.00  0.00    -0.375 OA
ATOM      8  N   GLN A   6     -13.352 -42.740  27.357  0.00  0.00    -0.292 N 
ATOM      9  H   GLN A   6     -13.754 -41.842  27.380  0.00  0.00    +0.195 HD
BRANCH   8  10
ATOM     10  CA  GLN A   6     -12.075 -42.939  28.022  0.00  0.00    +0.218 C 
BRANCH  10  11
ATOM     11  C   GLN A   6     -12.276 -43.105  29.516  0.00  0.00    +0.167 C 
ATOM     12  O   GLN A   6     -13.018 -42.341  30.131  0.00  0.00    -0.376 OA
ATOM     13  N   ARG A   7     -11.538 -44.115  30.090  0.00  0.00    -0.306 N 
ATOM     14  H   ARG A   7     -10.940 -44.626  29.499  0.00  0.00    +0.192 HD
BRANCH  13  15
ATOM     15  CA  ARG A   7     -11.565 -44.495  31.504  0.00  0.00    +0.151 C 
BRANCH  15  16
ATOM     16  C   ARG A   7     -11.130 -43.367  32.413  0.00  0.00    +0.046 C 
ATOM     17  OXT ARG A   7     -12.019 -42.848  33.163  0.00  0.00    -0.561 OA
ATOM     18  O   ARG A   7      -9.967 -42.980  32.420  0.00  0.00    -0.561 OA
ENDBRANCH  15  16
BRANCH  15  19
ATOM     19  CB  ARG A   7     -10.773 -45.777  31.775  0.00  0.00    +0.071 C 
BRANCH  19  20
ATOM     20  CG  ARG A   7      -9.885 -46.213  30.633  0.00  0.00    +0.070 C 
BRANCH  20  21
ATOM     21  CD  ARG A   7      -8.482 -46.409  31.106  0.00  0.00    +0.228 C 
BRANCH  21  22
ATOM     22  NE  ARG A   7      -8.114 -45.379  32.062  0.00  0.00    -0.331 N 
ATOM     23  CZ  ARG A   7      -7.221 -44.436  31.825  0.00  0.00    +0.115 C 
ATOM     24  NH2 ARG A   7      -6.623 -44.364  30.647  0.00  0.00    -0.317 N 
ATOM     25  NH1 ARG A   7      -6.920 -43.568  32.768  0.00  0.00    -0.359 NA
ATOM     26  H   ARG A   7      -8.557 -45.384  32.940  0.00  0.00    +0.298 HD
ATOM     27  H   ARG A   7      -6.847 -45.011  29.940  0.00  0.00    +0.294 HD
ATOM     28  H   ARG A   7      -5.954 -43.661  30.477  0.00  0.00    +0.294 HD
ATOM     29  H   ARG A   7      -7.364 -43.621  33.645  0.00  0.00    +0.232 HD
ATOM     30  H   ARG A   7      -6.251 -42.867  32.596  0.00  0.00    +0.232 HD
ATOM     31  H   ARG A   7      -6.152 -43.524  32.152  0.00  0.00    +0.232 HD
ENDBRANCH  21  22
ENDBRANCH  20  21
ENDBRANCH  19  20
ENDBRANCH  15  19
ENDBRANCH  13  15
ENDBRANCH  10  11
BRANCH  10  32
ATOM     32  CB  GLN A   6     -11.149 -41.723  27.754  0.00  0.00    +0.113 C 
BRANCH  32  33
ATOM     33  CG  GLN A   6      -9.779 -42.104  27.220  0.00  0.00    +0.194 C 
BRANCH  33  34
ATOM     34  CD  GLN A   6      -8.861 -42.641  28.299  0.00  0.00    +0.136 C 
ATOM     35  OE1 GLN A   6      -8.886 -43.815  28.626  0.00  0.00    -0.387 OA
ATOM     36  NE2 GLN A   6      -8.052 -41.778  28.880  0.00  0.00    -0.326 N 
ATOM     37  H   GLN A   6      -8.053 -40.836  28.597  0.00  0.00    +0.178 HD
ATOM     38  H   GLN A   6      -7.447 -42.077  29.598  0.00  0.00    +0.178 HD
ENDBRANCH  33  34
ENDBRANCH  32  33
ENDBRANCH  10  32
ENDBRANCH   8  10
ENDBRANCH   5   6
BRANCH   5  39
ATOM     39  CB  LEU A   5     -15.266 -42.335  24.976  0.00  0.00    +0.079 C 
BRANCH  39  40
ATOM     40  CG  LEU A   5     -15.923 -42.777  23.672  0.00  0.00    -0.016 C 
ATOM     41  CD2 LEU A   5     -15.810 -41.685  22.610  0.00  0.00    +0.014 C 
ATOM     42  CD1 LEU A   5     -15.248 -44.035  23.185  0.00  0.00    +0.014 C 
ENDBRANCH  39  40
ENDBRANCH   5  39
ENDBRANCH   3   5
BRANCH   1  43
ATOM     43  CA  LEU A   4     -18.311 -42.326  28.349  0.00  0.00    +0.213 C 
BRANCH  43  46
ATOM     44  C   SER A   3     -20.475 -43.445  28.369  0.00  0.00    +0.176 C 
ATOM     45  O   SER A   3     -19.993 -44.492  28.786  0.00  0.00    -0.373 OA
ATOM     46  N   LEU A   4     -19.745 -42.348  28.144  0.00  0.00    -0.291 N 
ATOM     47  H   LEU A   4     -20.195 -41.531  27.828  0.00  0.00    +0.195 HD
BRANCH  44  48
ATOM     48  CA  SER A   3     -21.974 -43.339  28.104  0.00  0.00    +0.247 C 
BRANCH  48  51
ATOM     49  C   LEU A   2     -22.620 -42.237  26.007  0.00  0.00    +0.170 C 
ATOM     50  O   LEU A   2     -22.667 -41.141  26.539  0.00  0.00    -0.375 OA
ATOM     51  N   SER A   3     -22.301 -43.336  26.685  0.00  0.00    -0.285 N 
ATOM     52  H   SER A   3     -22.285 -44.194  26.201  0.00  0.00    +0.197 HD
BRANCH  49  53
ATOM     53  CA  LEU A   2     -22.908 -42.403  24.506  0.00  0.00    +0.215 C 
BRANCH  53  56
ATOM     54  C   TYR A   1     -24.363 -41.230  22.966  0.00  0.00    +0.160 C 
ATOM     55  O   TYR A   1     -24.918 -42.274  22.614  0.00  0.00    -0.369 OA
ATOM     56  N   LEU A   2     -23.426 -41.203  23.854  0.00  0.00    -0.290 N 
ATOM     57  H   LEU A   2     -23.043 -40.331  24.104  0.00  0.00    +0.197 HD
BRANCH  54  58
ATOM     58  CA  TYR A   1     -24.768 -39.897  22.327  0.00  0.00    +0.198 C 
BRANCH  58  59
ATOM     59  N   TYR A   1     -26.061 -39.459  22.874  0.00  0.00    +0.362 NA
ATOM     60  H   TYR A   1     -26.138 -38.446  22.793  0.00  0.00    +0.134 HD
ATOM     61  H   TYR A   1     -26.123 -39.727  23.857  0.00  0.00    +0.134 HD
ATOM     62  H   TYR A   1     -26.818 -39.901  22.353  0.00  0.00    +0.134 HD
ATOM     63  H   TYR A   1     -26.517 -40.321  23.175  0.00  0.00    +0.134 HD
ENDBRANCH  58  59
BRANCH  58  64
ATOM     64  CB  TYR A   1     -23.708 -38.823  22.598  0.00  0.00    +0.129 C 
BRANCH  64  65
ATOM     65  CG  TYR A   1     -22.480 -38.951  21.733  0.00  0.00    -0.064 A 
ATOM     66  CD2 TYR A   1     -22.575 -39.415  20.422  0.00  0.00    +0.029 A 
ATOM     67  CD1 TYR A   1     -21.235 -38.572  22.213  0.00  0.00    +0.029 A 
ATOM     68  CE2 TYR A   1     -21.447 -39.521  19.604  0.00  0.00    +0.079 A 
ATOM     69  CE1 TYR A   1     -20.101 -38.670  21.389  0.00  0.00    +0.079 A 
ATOM     70  CZ  TYR A   1     -20.207 -39.146  20.100  0.00  0.00    +0.033 A 
BRANCH  70  71
ATOM     71  OH  TYR A   1     -19.102 -39.254  19.298  0.00  0.00    -0.565 OA
ATOM     72  H   TYR A   1     -18.738 -38.490  18.896  0.00  0.00    +0.334 HD
ENDBRANCH  70  71
ENDBRANCH  64  65
ENDBRANCH  58  64
ENDBRANCH  54  58
ENDBRANCH  53  56
BRANCH  53  73
ATOM     73  CB  LEU A   2     -21.691 -42.964  23.720  0.00  0.00    +0.079 C 
BRANCH  73  74
ATOM     74  CG  LEU A   2     -20.785 -42.052  22.865  0.00  0.00    -0.016 C 
ATOM     75  CD2 LEU A   2     -19.506 -41.626  23.615  0.00  0.00    +0.014 C 
ATOM     76  CD1 LEU A   2     -20.443 -42.692  21.542  0.00  0.00    +0.014 C 
ENDBRANCH  73  74
ENDBRANCH  53  73
ENDBRANCH  49  53
ENDBRANCH  48  51
BRANCH  48  77
ATOM     77  CB  SER A   3     -22.717 -44.481  28.793  0.00  0.00    +0.246 C 
BRANCH  77  78
ATOM     78  OG  SER A   3     -22.538 -44.403  30.204  0.00  0.00    -0.447 OA
ATOM     79  H   SER A   3     -21.802 -44.977  30.468  0.00  0.00    +0.236 HD
ENDBRANCH  77  78
ENDBRANCH  48  77
ENDBRANCH  44  48
ENDBRANCH  43  46
BRANCH  43  80
ATOM     80  CB  LEU A   4     -17.964 -43.060  29.643  0.00  0.00    +0.079 C 
BRANCH  80  81
ATOM     81  CG  LEU A   4     -16.609 -42.686  30.236  0.00  0.00    -0.016 C 
ATOM     82  CD1 LEU A   4     -16.758 -41.931  31.527  0.00  0.00    +0.014 C 
ATOM     83  CD2 LEU A   4     -15.792 -43.935  30.430  0.00  0.00    +0.014 C 
ENDBRANCH  80  81
ENDBRANCH  43  80
ENDBRANCH   1  43
TORSDOF 32
ENDMDL
